# vtk DataFile Version 3.0
VTK from Matlab
ASCII
DATASET STRUCTURED_GRID
DIMENSIONS 50 20 50
POINTS 50000 float
1.00000  1.00000  1.00000
1.00000  2.00000  1.00000
1.00000  3.00000  1.00000
1.00000  4.00000  1.00000
1.00000  5.00000  1.00000
1.00000  6.00000  1.00000
1.00000  7.00000  1.00000
1.00000  8.00000  1.00000
1.00000  9.00000  1.00000
1.00000  10.00000  1.00000
1.00000  11.00000  1.00000
1.00000  12.00000  1.00000
1.00000  13.00000  1.00000
1.00000  14.00000  1.00000
1.00000  15.00000  1.00000
1.00000  16.00000  1.00000
1.00000  17.00000  1.00000
1.00000  18.00000  1.00000
1.00000  19.00000  1.00000
1.00000  20.00000  1.00000
1.00000  21.00000  1.00000
1.00000  22.00000  1.00000
1.00000  23.00000  1.00000
1.00000  24.00000  1.00000
1.00000  25.00000  1.00000
1.00000  26.00000  1.00000
1.00000  27.00000  1.00000
1.00000  28.00000  1.00000
1.00000  29.00000  1.00000
1.00000  30.00000  1.00000
1.00000  31.00000  1.00000
1.00000  32.00000  1.00000
1.00000  33.00000  1.00000
1.00000  34.00000  1.00000
1.00000  35.00000  1.00000
1.00000  36.00000  1.00000
1.00000  37.00000  1.00000
1.00000  38.00000  1.00000
1.00000  39.00000  1.00000
1.00000  40.00000  1.00000
1.00000  41.00000  1.00000
1.00000  42.00000  1.00000
1.00000  43.00000  1.00000
1.00000  44.00000  1.00000
1.00000  45.00000  1.00000
1.00000  46.00000  1.00000
1.00000  47.00000  1.00000
1.00000  48.00000  1.00000
1.00000  49.00000  1.00000
1.00000  50.00000  1.00000
2.00000  1.00000  1.00000
2.00000  2.00000  1.00000
2.00000  3.00000  1.00000
2.00000  4.00000  1.00000
2.00000  5.00000  1.00000
2.00000  6.00000  1.00000
2.00000  7.00000  1.00000
2.00000  8.00000  1.00000
2.00000  9.00000  1.00000
2.00000  10.00000  1.00000
2.00000  11.00000  1.00000
2.00000  12.00000  1.00000
2.00000  13.00000  1.00000
2.00000  14.00000  1.00000
2.00000  15.00000  1.00000
2.00000  16.00000  1.00000
2.00000  17.00000  1.00000
2.00000  18.00000  1.00000
2.00000  19.00000  1.00000
2.00000  20.00000  1.00000
2.00000  21.00000  1.00000
2.00000  22.00000  1.00000
2.00000  23.00000  1.00000
2.00000  24.00000  1.00000
2.00000  25.00000  1.00000
2.00000  26.00000  1.00000
2.00000  27.00000  1.00000
2.00000  28.00000  1.00000
2.00000  29.00000  1.00000
2.00000  30.00000  1.00000
2.00000  31.00000  1.00000
2.00000  32.00000  1.00000
2.00000  33.00000  1.00000
2.00000  34.00000  1.00000
2.00000  35.00000  1.00000
2.00000  36.00000  1.00000
2.00000  37.00000  1.00000
2.00000  38.00000  1.00000
2.00000  39.00000  1.00000
2.00000  40.00000  1.00000
2.00000  41.00000  1.00000
2.00000  42.00000  1.00000
2.00000  43.00000  1.00000
2.00000  44.00000  1.00000
2.00000  45.00000  1.00000
2.00000  46.00000  1.00000
2.00000  47.00000  1.00000
2.00000  48.00000  1.00000
2.00000  49.00000  1.00000
2.00000  50.00000  1.00000
3.00000  1.00000  1.00000
3.00000  2.00000  1.00000
3.00000  3.00000  1.00000
3.00000  4.00000  1.00000
3.00000  5.00000  1.00000
3.00000  6.00000  1.00000
3.00000  7.00000  1.00000
3.00000  8.00000  1.00000
3.00000  9.00000  1.00000
3.00000  10.00000  1.00000
3.00000  11.00000  1.00000
3.00000  12.00000  1.00000
3.00000  13.00000  1.00000
3.00000  14.00000  1.00000
3.00000  15.00000  1.00000
3.00000  16.00000  1.00000
3.00000  17.00000  1.00000
3.00000  18.00000  1.00000
3.00000  19.00000  1.00000
3.00000  20.00000  1.00000
3.00000  21.00000  1.00000
3.00000  22.00000  1.00000
3.00000  23.00000  1.00000
3.00000  24.00000  1.00000
3.00000  25.00000  1.00000
3.00000  26.00000  1.00000
3.00000  27.00000  1.00000
3.00000  28.00000  1.00000
3.00000  29.00000  1.00000
3.00000  30.00000  1.00000
3.00000  31.00000  1.00000
3.00000  32.00000  1.00000
3.00000  33.00000  1.00000
3.00000  34.00000  1.00000
3.00000  35.00000  1.00000
3.00000  36.00000  1.00000
3.00000  37.00000  1.00000
3.00000  38.00000  1.00000
3.00000  39.00000  1.00000
3.00000  40.00000  1.00000
3.00000  41.00000  1.00000
3.00000  42.00000  1.00000
3.00000  43.00000  1.00000
3.00000  44.00000  1.00000
3.00000  45.00000  1.00000
3.00000  46.00000  1.00000
3.00000  47.00000  1.00000
3.00000  48.00000  1.00000
3.00000  49.00000  1.00000
3.00000  50.00000  1.00000
4.00000  1.00000  1.00000
4.00000  2.00000  1.00000
4.00000  3.00000  1.00000
4.00000  4.00000  1.00000
4.00000  5.00000  1.00000
4.00000  6.00000  1.00000
4.00000  7.00000  1.00000
4.00000  8.00000  1.00000
4.00000  9.00000  1.00000
4.00000  10.00000  1.00000
4.00000  11.00000  1.00000
4.00000  12.00000  1.00000
4.00000  13.00000  1.00000
4.00000  14.00000  1.00000
4.00000  15.00000  1.00000
4.00000  16.00000  1.00000
4.00000  17.00000  1.00000
4.00000  18.00000  1.00000
4.00000  19.00000  1.00000
4.00000  20.00000  1.00000
4.00000  21.00000  1.00000
4.00000  22.00000  1.00000
4.00000  23.00000  1.00000
4.00000  24.00000  1.00000
4.00000  25.00000  1.00000
4.00000  26.00000  1.00000
4.00000  27.00000  1.00000
4.00000  28.00000  1.00000
4.00000  29.00000  1.00000
4.00000  30.00000  1.00000
4.00000  31.00000  1.00000
4.00000  32.00000  1.00000
4.00000  33.00000  1.00000
4.00000  34.00000  1.00000
4.00000  35.00000  1.00000
4.00000  36.00000  1.00000
4.00000  37.00000  1.00000
4.00000  38.00000  1.00000
4.00000  39.00000  1.00000
4.00000  40.00000  1.00000
4.00000  41.00000  1.00000
4.00000  42.00000  1.00000
4.00000  43.00000  1.00000
4.00000  44.00000  1.00000
4.00000  45.00000  1.00000
4.00000  46.00000  1.00000
4.00000  47.00000  1.00000
4.00000  48.00000  1.00000
4.00000  49.00000  1.00000
4.00000  50.00000  1.00000
5.00000  1.00000  1.00000
5.00000  2.00000  1.00000
5.00000  3.00000  1.00000
5.00000  4.00000  1.00000
5.00000  5.00000  1.00000
5.00000  6.00000  1.00000
5.00000  7.00000  1.00000
5.00000  8.00000  1.00000
5.00000  9.00000  1.00000
5.00000  10.00000  1.00000
5.00000  11.00000  1.00000
5.00000  12.00000  1.00000
5.00000  13.00000  1.00000
5.00000  14.00000  1.00000
5.00000  15.00000  1.00000
5.00000  16.00000  1.00000
5.00000  17.00000  1.00000
5.00000  18.00000  1.00000
5.00000  19.00000  1.00000
5.00000  20.00000  1.00000
5.00000  21.00000  1.00000
5.00000  22.00000  1.00000
5.00000  23.00000  1.00000
5.00000  24.00000  1.00000
5.00000  25.00000  1.00000
5.00000  26.00000  1.00000
5.00000  27.00000  1.00000
5.00000  28.00000  1.00000
5.00000  29.00000  1.00000
5.00000  30.00000  1.00000
5.00000  31.00000  1.00000
5.00000  32.00000  1.00000
5.00000  33.00000  1.00000
5.00000  34.00000  1.00000
5.00000  35.00000  1.00000
5.00000  36.00000  1.00000
5.00000  37.00000  1.00000
5.00000  38.00000  1.00000
5.00000  39.00000  1.00000
5.00000  40.00000  1.00000
5.00000  41.00000  1.00000
5.00000  42.00000  1.00000
5.00000  43.00000  1.00000
5.00000  44.00000  1.00000
5.00000  45.00000  1.00000
5.00000  46.00000  1.00000
5.00000  47.00000  1.00000
5.00000  48.00000  1.00000
5.00000  49.00000  1.00000
5.00000  50.00000  1.00000
6.00000  1.00000  1.00000
6.00000  2.00000  1.00000
6.00000  3.00000  1.00000
6.00000  4.00000  1.00000
6.00000  5.00000  1.00000
6.00000  6.00000  1.00000
6.00000  7.00000  1.00000
6.00000  8.00000  1.00000
6.00000  9.00000  1.00000
6.00000  10.00000  1.00000
6.00000  11.00000  1.00000
6.00000  12.00000  1.00000
6.00000  13.00000  1.00000
6.00000  14.00000  1.00000
6.00000  15.00000  1.00000
6.00000  16.00000  1.00000
6.00000  17.00000  1.00000
6.00000  18.00000  1.00000
6.00000  19.00000  1.00000
6.00000  20.00000  1.00000
6.00000  21.00000  1.00000
6.00000  22.00000  1.00000
6.00000  23.00000  1.00000
6.00000  24.00000  1.00000
6.00000  25.00000  1.00000
6.00000  26.00000  1.00000
6.00000  27.00000  1.00000
6.00000  28.00000  1.00000
6.00000  29.00000  1.00000
6.00000  30.00000  1.00000
6.00000  31.00000  1.00000
6.00000  32.00000  1.00000
6.00000  33.00000  1.00000
6.00000  34.00000  1.00000
6.00000  35.00000  1.00000
6.00000  36.00000  1.00000
6.00000  37.00000  1.00000
6.00000  38.00000  1.00000
6.00000  39.00000  1.00000
6.00000  40.00000  1.00000
6.00000  41.00000  1.00000
6.00000  42.00000  1.00000
6.00000  43.00000  1.00000
6.00000  44.00000  1.00000
6.00000  45.00000  1.00000
6.00000  46.00000  1.00000
6.00000  47.00000  1.00000
6.00000  48.00000  1.00000
6.00000  49.00000  1.00000
6.00000  50.00000  1.00000
7.00000  1.00000  1.00000
7.00000  2.00000  1.00000
7.00000  3.00000  1.00000
7.00000  4.00000  1.00000
7.00000  5.00000  1.00000
7.00000  6.00000  1.00000
7.00000  7.00000  1.00000
7.00000  8.00000  1.00000
7.00000  9.00000  1.00000
7.00000  10.00000  1.00000
7.00000  11.00000  1.00000
7.00000  12.00000  1.00000
7.00000  13.00000  1.00000
7.00000  14.00000  1.00000
7.00000  15.00000  1.00000
7.00000  16.00000  1.00000
7.00000  17.00000  1.00000
7.00000  18.00000  1.00000
7.00000  19.00000  1.00000
7.00000  20.00000  1.00000
7.00000  21.00000  1.00000
7.00000  22.00000  1.00000
7.00000  23.00000  1.00000
7.00000  24.00000  1.00000
7.00000  25.00000  1.00000
7.00000  26.00000  1.00000
7.00000  27.00000  1.00000
7.00000  28.00000  1.00000
7.00000  29.00000  1.00000
7.00000  30.00000  1.00000
7.00000  31.00000  1.00000
7.00000  32.00000  1.00000
7.00000  33.00000  1.00000
7.00000  34.00000  1.00000
7.00000  35.00000  1.00000
7.00000  36.00000  1.00000
7.00000  37.00000  1.00000
7.00000  38.00000  1.00000
7.00000  39.00000  1.00000
7.00000  40.00000  1.00000
7.00000  41.00000  1.00000
7.00000  42.00000  1.00000
7.00000  43.00000  1.00000
7.00000  44.00000  1.00000
7.00000  45.00000  1.00000
7.00000  46.00000  1.00000
7.00000  47.00000  1.00000
7.00000  48.00000  1.00000
7.00000  49.00000  1.00000
7.00000  50.00000  1.00000
8.00000  1.00000  1.00000
8.00000  2.00000  1.00000
8.00000  3.00000  1.00000
8.00000  4.00000  1.00000
8.00000  5.00000  1.00000
8.00000  6.00000  1.00000
8.00000  7.00000  1.00000
8.00000  8.00000  1.00000
8.00000  9.00000  1.00000
8.00000  10.00000  1.00000
8.00000  11.00000  1.00000
8.00000  12.00000  1.00000
8.00000  13.00000  1.00000
8.00000  14.00000  1.00000
8.00000  15.00000  1.00000
8.00000  16.00000  1.00000
8.00000  17.00000  1.00000
8.00000  18.00000  1.00000
[...]
POINT_DATA 50000
SCALARS Perm float
LOOKUP_TABLE default
612.90901
649.59769
610.32561
620.61987
630.11071
665.70088
731.86915
683.74254
698.66310
620.51636
616.71242
548.91705
640.98467
626.96228
620.01692
623.47572
536.19005
557.96604
587.82296
693.82721
655.63152
670.79355
566.60955
575.67232
598.61056
627.94207
644.10363
610.23249
685.43570
610.96914
540.72680
556.66945
558.71969
522.74207
519.01992
473.92596
583.21033
575.96302
654.09818
553.64992
635.38756
717.12146
605.75611
580.47166
531.85832
580.17610
622.24078
577.35695
537.17782
544.50062
566.59459
589.45285
556.69415
555.72874
525.00549
526.09932
580.76798
627.44301
581.44461
591.89052
541.73244
601.25235
665.82992
695.23406
586.25967
588.93448
624.48822
630.14673
583.16671
607.64870
663.53885
643.24990
668.66164
593.69535
540.66655
507.22031
540.42675
534.71671
514.85300
562.49747
611.20337
597.34050
672.78256
625.95604
653.33932
593.81772
576.17522
537.40439
606.22818
519.16346
515.05996
525.33742
540.90704
499.30705
493.04247
526.76196
630.39804
537.23817
478.11015
468.65954
579.23115
549.91689
575.94060
527.00573
554.53130
533.75281
551.60722
513.08406
536.85277
515.54092
514.65911
538.78811
544.31471
506.53601
522.62485
548.01205
512.53322
452.30943
494.03414
454.66080
873.76021
628.60700
553.56312
537.45646
604.22603
553.85286
501.96850
540.71322
578.63152
564.28351
545.37312
657.89512
698.02352
671.84006
639.76579
616.04816
564.47562
485.42324
545.85207
492.56024
753.33695
815.20836
740.91788
784.80008
740.46564
711.22438
681.42497
679.70834
680.36337
643.64918
605.97789
638.98879
616.11725
571.11695
582.97862
572.11345
537.44041
549.87319
505.03414
497.73349
788.93430
774.12240
672.63752
670.13183
541.31861
613.54121
581.92024
592.55528
554.57360
559.39632
605.44114
605.69753
604.93457
577.67767
660.70096
646.70926
536.57833
605.33197
538.59093
521.43991
650.38229
699.76873
573.96627
511.16960
497.08033
579.92700
617.81750
607.05199
592.51060
610.20561
652.14062
587.53713
550.65344
522.18883
578.70924
598.19291
596.41400
605.11576
543.27028
489.34878
545.97523
541.74624
578.29778
484.34937
570.28496
614.79465
610.18506
523.55226
464.56751
461.38627
481.43151
568.04385
657.74480
602.04331
608.67721
522.90675
508.77673
471.30733
451.86503
425.58785
669.48424
648.38635
686.01648
569.67765
576.39717
552.53361
528.07703
538.70276
476.22924
491.32446
472.40762
587.01016
651.26204
629.83087
649.29070
668.31498
585.78101
532.71505
627.66100
632.93514
604.24210
719.74030
716.04741
637.67403
610.98162
616.37975
590.30406
585.64092
674.07274
591.19664
578.93190
449.59975
468.54552
428.42153
524.91100
544.80563
614.66656
551.20183
473.61702
463.29728
457.02512
439.94138
553.36105
533.07930
614.82985
542.86957
643.68391
585.90906
645.96433
627.62527
628.99471
592.52921
556.25256
538.08376
569.29872
549.58673
546.52013
546.58851
523.56900
435.15324
581.45980
597.20128
579.32338
484.17922
474.60690
466.00189
578.10090
493.67347
561.68180
476.66060
563.82187
505.76677
541.67077
543.41133
559.29833
599.60380
626.19570
574.02730
549.21462
517.19230
638.76834
631.56080
591.27519
553.43419
566.07780
581.30715
576.87952
663.09148
614.17799
569.64425
506.64495
634.04528
624.31105
605.93324
573.34953
581.42551
617.22208
492.93700
464.32911
454.94889
621.40696
663.24982
625.51335
663.20855
678.61669
624.40929
645.19685
569.56050
644.16935
572.64232
608.30334
590.58839
608.19347
556.10160
507.06513
530.92476
566.84627
633.13644
556.19751
545.96435
559.82624
521.68428
526.68146
551.21944
558.29833
614.22108
547.69128
576.39274
529.44468
596.10137
636.15858
566.58475
554.18794
562.19428
533.63849
556.71557
575.41304
501.93078
510.27567
451.26285
514.09793
569.92822
640.60247
648.02102
615.92061
616.02418
615.42197
588.08580
577.97953
546.44419
671.79414
657.43743
712.80599
694.90417
615.73238
612.01723
665.15004
570.40497
555.17912
500.92034
539.54487
629.38021
607.66767
678.15618
664.65176
626.73280
654.87009
539.70591
516.63199
540.12911
637.12434
633.89537
625.05180
536.93713
547.88200
528.61331
522.86238
504.83271
549.47022
491.00291
532.18882
523.13999
661.90990
675.32240
679.70069
571.34079
581.24943
692.86907
794.64041
769.75019
576.46293
530.97394
466.64585
490.72194
474.02502
486.81426
450.87641
566.04788
596.27724
656.23488
816.45410
770.52362
694.24588
690.66952
678.31616
626.01688
683.78025
690.78002
643.77797
647.33903
708.96860
707.84446
705.07675
616.27900
560.40651
551.94144
560.29772
639.78271
532.92336
486.04564
790.68038
777.56165
667.76880
697.16388
630.88448
644.58082
518.90712
587.05757
632.52631
685.31227
646.95504
574.51236
553.77925
560.18719
532.08869
504.41809
459.66303
522.60640
552.19503
567.82795
611.03342
599.62416
651.71667
618.04524
636.98676
611.81213
616.49329
586.96996
627.84202
603.77219
586.83596
481.23760
442.53854
515.70736
564.29743
599.82603
617.38142
582.26524
571.28768
514.57883
754.16971
618.40415
538.66491
481.62013
585.46079
660.80085
712.09865
657.89010
663.28918
591.79033
602.82783
578.58054
640.29899
548.22037
613.66459
545.38690
484.49410
524.66538
565.80458
667.14084
541.99374
601.80323
653.33477
656.82316
575.38158
678.36983
605.29888
568.20108
468.33661
516.72740
617.31490
640.03361
634.07396
689.77323
747.61262
693.78711
655.85615
503.74676
477.50722
448.43227
487.35414
496.21810
543.68494
630.29823
668.30232
589.24489
581.63745
685.96594
653.27541
598.86979
510.45260
545.32863
536.20998
557.32590
519.23268
539.10830
607.36587
572.39539
551.47040
535.13397
566.39118
614.82084
610.39328
644.29188
609.67683
593.63289
572.31964
634.52554
634.27765
521.08958
530.17740
594.44084
714.56305
710.91480
779.30652
695.32675
700.10622
625.05468
625.13455
592.95763
660.14826
662.52512
633.17694
570.15601
609.15306
569.22136
631.84112
694.17795
743.34709
649.60437
644.47004
614.84341
538.12035
520.36238
526.74491
635.12311
576.03351
603.21085
674.65469
707.34628
565.75394
592.06538
614.15225
682.57216
616.26178
527.02998
439.51696
447.84693
468.13435
492.39946
526.84147
590.19680
671.74061
652.02859
587.51221
613.94000
630.50015
609.75681
588.51434
584.53935
734.60880
755.14549
653.05359
646.43059
651.01042
658.85099
589.30648
557.42640
568.78678
572.52993
578.55247
599.09565
688.17132
606.90022
656.84185
611.89565
585.05173
585.53386
628.77529
623.90296
681.38717
609.52226
600.10957
575.40733
599.65154
564.67812
550.39648
584.42095
569.07144
643.22662
671.03485
576.64146
512.12521
500.47530
556.42585
595.64935
534.29723
540.20064
475.05848
560.09321
598.52406
602.65239
632.81538
642.10375
559.29196
590.98287
614.84273
622.89251
603.24422
613.56410
660.11725
762.14215
594.16346
576.80737
554.95701
553.75021
522.03596
523.08397
614.14904
635.00838
566.94469
630.78874
612.46169
589.72041
513.10209
519.63660
602.05292
624.74761
551.50809
642.82533
578.01858
545.12780
552.03096
546.78855
626.28542
617.85498
646.87167
557.76319
581.05463
470.95553
593.55721
594.37776
591.50090
591.21776
558.75971
589.27498
571.73149
525.11672
498.11624
597.30671
527.37277
560.67037
492.46956
629.83320
561.58636
589.65413
500.67083
557.90295
518.51814
452.32838
634.46469
658.32191
515.28685
510.61025
564.60856
619.38920
544.79772
540.58283
602.96402
742.85538
797.99132
767.11747
660.75486
618.21724
455.01881
483.88996
466.08779
535.61408
559.99329
590.56619
568.70473
504.12916
502.52362
485.75826
515.69637
595.71292
620.56121
555.11368
577.27506
518.24495
506.74117
534.51469
614.93550
627.96421
557.75486
502.01528
476.98169
506.80973
580.91798
650.30429
514.29422
509.25014
580.80257
570.06199
599.63418
556.68440
572.35643
502.74906
548.48322
617.82564
587.45643
556.31264
518.02420
493.18882
445.68287
557.86352
580.37739
639.58377
591.57902
577.49418
592.51764
608.67993
643.19760
610.20887
695.86186
679.19883
634.90871
636.32919
579.41969
558.01093
544.03618
536.84840
519.97259
568.22730
591.35831
603.45274
591.31123
630.63514
621.15292
654.53281
524.92305
504.75160
472.47836
477.92473
463.37401
542.38108
572.91652
578.30289
547.26347
526.50819
493.82869
479.43897
510.83090
497.21016
581.53600
546.20472
635.57473
517.44592
524.60909
493.47207
564.37844
612.00273
564.79544
492.62941
488.52693
548.17633
670.86177
646.91868
655.82573
649.84860
599.67656
613.83911
564.90360
505.13860
507.20269
549.82510
606.61810
649.99668
526.69480
529.81307
452.17859
486.50473
574.43496
715.62492
723.89600
723.52040
599.09134
666.51342
644.29344
651.15826
565.83421
589.69933
677.39626
620.67941
681.28776
605.69029
619.91181
549.21216
537.78919
459.10863
523.82553
526.65079
559.63103
572.92040
502.82365
549.84580
533.13217
607.73656
549.58144
604.13714
505.51878
587.36852
627.06035
621.95974
535.31890
503.21744
498.57124
458.38311
511.47394
559.64063
574.15962
541.27805
482.51149
457.98664
501.43273
519.84291
522.41264
540.60477
622.76343
609.15825
602.72224
608.32324
623.46273
736.46150
690.19394
678.72238
562.20935
559.99376
496.53922
496.27348
520.90534
617.92881
616.08342
645.15075
603.25853
629.49252
559.22537
589.05295
607.43469
585.79677
453.71913
437.47791
412.37688
517.73799
599.31271
589.94415
481.15034
498.57765
461.03273
462.69791
714.95357
666.54316
682.96901
637.84962
509.72099
477.45928
504.41299
574.26101
568.04553
595.27410
582.76074
505.39777
518.62741
510.70782
604.76168
580.54215
586.47407
537.75796
476.44942
440.75548
560.40107
612.90605
683.84547
657.30085
552.97537
480.91563
517.50989
580.16249
541.80847
556.26767
548.23253
644.43605
666.49001
611.91239
589.77973
506.66665
532.33734
525.11555
549.38427
491.66661
636.31317
576.83727
660.64050
694.05062
636.86655
691.91862
621.04974
671.18433
540.01831
580.93025
585.84790
722.33601
727.16453
706.03761
717.40234
633.49293
640.21872
562.26374
582.76888
549.53135
495.80930
534.16939
574.12768
633.86901
530.41134
583.96012
526.30747
506.99088
442.20164
565.48592
536.49856
557.39576
499.60002
561.60609
616.29402
629.38474
667.96047
628.76595
560.59804
493.28314
527.50707
558.87076
601.01579
630.44397
605.17347
627.33422
525.93712
448.05156
454.97239
469.40318
493.81760
501.28110
511.56867
473.75079
508.44367
504.73956
596.55739
489.33615
493.29202
421.90260
581.39275
675.46242
626.23679
612.85812
629.62143
660.79330
721.96034
686.52162
700.84914
628.99923
585.70465
560.12968
582.78303
618.62019
583.57522
631.61028
539.68482
561.72798
558.07160
675.77119
665.67496
661.89773
614.00693
614.20857
571.76681
558.25784
656.40484
630.04700
659.51637
613.66614
571.68891
540.39793
555.43067
532.56683
576.49610
498.96184
573.91290
585.56015
623.85938
610.65877
638.52306
700.88318
623.02868
582.40939
527.58384
589.48595
566.39388
557.60910
514.76275
516.43538
533.82078
598.95190
539.42022
561.89511
525.02773
554.31107
590.16996
628.58662
611.68718
587.44241
586.41050
612.41738
629.19111
728.50539
615.14697
568.31879
631.23055
600.29675
607.57996
567.62146
642.83628
647.35698
680.14993
585.41037
562.55623
514.99714
544.80243
530.63787
554.44131
560.52278
628.93540
605.31406
703.44144
666.92415
655.54612
652.79375
555.82803
532.34321
594.06907
553.99216
534.50711
514.65586
547.01514
497.53500
519.54939
531.28698
570.09034
536.22014
513.07998
495.63779
611.83340
535.70786
548.32059
518.46125
575.56023
556.93060
548.89555
582.03563
507.17578
527.22178
524.53801
557.86341
529.99590
516.22160
554.68355
574.73788
488.40045
473.65431
490.23635
491.08741
696.52881
623.11905
546.76187
482.86027
555.11436
517.67125
532.61955
541.00189
598.42375
602.74253
554.24678
645.36426
706.98104
729.89319
637.66525
579.42705
569.41329
514.70071
488.26450
507.58013
685.25495
737.06700
727.10945
766.62217
704.84873
710.60306
676.08768
659.75145
628.57417
657.53500
569.82818
609.34865
617.32768
597.40998
583.51397
583.42853
570.27710
560.80401
515.62376
503.41796
807.41449
806.60875
677.00150
659.27003
533.69712
601.84910
578.85437
584.73986
572.61696
598.17899
634.94465
618.83769
601.77956
603.71508
695.03074
578.91008
507.80329
569.83837
532.48581
534.54866
662.04922
712.78769
568.77529
554.33349
492.52985
583.23290
592.99618
623.56323
540.97794
604.01641
632.89734
621.96796
524.82423
528.93889
535.19634
574.84933
578.01042
633.88659
538.25303
498.55052
526.21159
556.99392
557.92662
521.22303
545.86218
601.02007
655.21422
534.52263
462.92774
484.27598
492.28353
561.25833
633.95748
661.35146
583.67665
515.35129
513.44643
461.10046
442.22184
418.01329
652.75194
645.15144
686.48714
603.08056
599.28541
563.25426
570.02107
555.51921
489.34976
477.69835
521.94108
550.17190
658.05230
656.86418
621.10775
638.89386
604.31203
588.01957
609.10884
633.70806
578.78453
679.90208
699.40597
677.41016
600.88819
586.07507
572.93444
609.08214
632.09344
611.62910
566.92145
518.94303
435.14878
463.16864
560.80690
599.22628
607.23813
523.63216
491.74859
449.68765
481.47941
462.18604
587.97537
547.80332
620.45987
552.09755
657.32731
540.36944
625.39516
572.40058
644.50644
549.77267
620.40827
533.51779
539.45096
560.51452
585.30567
569.83283
524.01408
450.01272
612.62251
632.70718
562.68663
527.35633
473.91265
523.68460
572.44505
522.38316
548.73558
513.57502
585.78272
506.68907
509.32052
526.86988
567.75536
584.05826
638.21493
561.67147
544.04408
507.94964
657.13241
620.80851
606.93257
603.06109
563.63913
550.81930
567.22999
633.92107
600.20871
591.59096
506.86016
585.13795
654.10078
604.39857
583.17717
562.45448
586.95544
501.84340
470.67873
464.40824
628.32117
650.84342
628.98114
641.12729
635.85299
657.70499
662.38320
616.64810
613.05787
601.97406
616.35852
612.27626
623.57591
576.04242
509.23983
552.03203
590.07797
625.54576
552.45047
548.60977
571.95939
535.34955
537.68632
566.22592
588.50040
601.32522
550.18943
543.28612
572.77331
578.13588
621.71843
561.63045
560.10947
550.96152
528.17974
573.02709
580.19879
528.25672
483.44410
491.64264
569.76465
585.50927
640.29752
582.16955
690.10816
620.10067
623.10983
511.01799
525.75696
512.14742
628.95255
600.51448
652.64397
631.88755
647.89354
631.92219
634.43559
544.97733
548.78090
503.94564
580.18952
578.37729
605.66664
643.72199
712.82058
644.53270
634.43911
508.69516
508.67241
540.32923
606.93921
603.40921
622.63857
558.26312
499.10443
544.21506
506.09866
510.47895
501.79090
506.00030
481.30245
564.82503
673.79481
682.37875
637.96485
597.92320
558.81779
686.91018
771.59291
766.28993
598.02523
545.44618
479.44968
488.66742
449.65462
465.35045
504.61722
544.35431
585.86715
590.42063
755.07643
795.62869
712.60210
633.55581
622.18742
635.26798
640.97299
664.98242
652.86592
669.81684
666.01048
688.94849
667.35407
592.42911
556.86984
532.17941
577.77911
584.46245
574.86889
525.74169
744.04349
710.46615
697.92133
644.49656
602.11746
589.89043
524.77892
574.07804
594.51079
743.02296
635.31952
640.05996
535.61103
587.39212
541.16330
528.49232
464.94836
547.37672
561.80455
611.63604
541.15918
616.84159
629.52505
642.12885
627.64208
616.73235
651.00042
556.20345
715.99373
590.29135
597.56307
486.18784
456.10631
499.98958
562.07425
615.95150
653.94177
577.56807
576.38407
551.83890
701.67759
637.87479
531.07631
515.95474
563.24214
597.05701
682.51120
640.25883
619.70715
552.79334
594.16463
605.12478
601.58143
603.93610
619.51172
545.12231
488.34925
502.72317
586.79078
657.01953
560.13611
592.08719
691.82345
645.38540
620.18181
642.25191
651.43376
558.41445
488.00947
483.76354
558.55271
646.53186
633.20673
661.85366
709.84735
699.54986
605.74890
562.55347
510.26558
460.22467
514.86108
494.77163
569.94159
595.67320
719.99154
619.72066
623.29441
670.75190
674.52619
613.89750
542.83689
542.30456
596.22748
559.85955
575.51532
555.97336
612.17519
545.47936
563.00892
522.77054
603.52800
596.03789
605.22377
588.53777
577.06641
586.33344
596.66946
577.84135
587.19740
498.62804
557.10566
561.57030
648.30513
697.97652
733.91123
697.93200
655.98496
614.90006
613.66808
597.64532
667.59406
625.75058
615.20240
583.26134
577.55276
556.95740
676.71571
693.26887
641.67780
674.97457
656.32792
604.15011
539.43985
525.38611
567.88461
608.66299
594.39085
598.04795
654.16231
657.28973
533.09031
592.52942
603.71394
662.73186
647.62892
516.04387
432.47922
460.31042
462.22161
490.70966
515.64344
599.24361
647.51920
633.31302
596.99938
607.23805
600.54274
577.87164
586.94005
598.70765
709.67072
746.07287
670.22713
667.57653
630.09620
636.48382
616.04306
616.74267
574.99359
567.18687
609.93578
564.17695
611.66445
656.66158
605.99997
611.32761
584.54685
613.32425
619.82583
639.05647
654.61521
602.11084
573.79279
541.82294
607.16560
547.12799
590.16307
556.69741
576.73210
639.39798
694.48880
593.19575
506.39710
504.34418
624.36586
571.66082
551.25388
493.69357
486.44421
526.97596
550.13837
575.83540
606.33128
577.17067
581.63701
549.87807
598.97258
589.49126
596.58230
607.32359
665.01238
710.25659
602.14958
591.92926
572.44111
541.39056
548.19403
518.86391
632.87941
595.03691
555.70274
573.36443
602.64406
556.07569
512.98387
480.21682
537.18455
591.32001
602.30361
557.50873
607.05718
518.74714
595.20213
572.57165
640.91844
629.05152
653.68791
622.67493
565.76452
466.41904
578.13217
610.54051
591.37180
618.18746
634.31545
613.11220
594.88624
517.35471
498.90986
583.53853
514.45007
492.56308
469.42991
594.69469
582.37203
567.78076
510.53322
531.77171
483.95892
465.02383
679.20455
589.31744
525.01524
491.29363
579.62546
608.37163
594.56147
557.99359
617.84263
737.84897
758.96703
753.91088
694.28697
576.68563
473.40180
488.92461
498.33234
514.95478
550.42745
538.29808
536.11107
504.93920
463.92069
504.29508
528.14397
584.42998
625.75682
617.23139
585.89010
512.04799
497.77104
559.43799
613.46257
601.09767
524.94177
527.10483
512.09275
513.61804
557.83318
673.38303
514.92537
549.38188
572.89576
596.39456
575.62395
579.71528
550.15931
520.95233
555.74724
595.68028
615.76447
568.25834
531.33132
471.13414
476.45550
567.10249
613.98933
626.49405
609.82536
592.50155
605.46443
586.27149
601.95159
609.25317
706.95284
662.61925
669.29759
619.25459
601.57169
610.80927
585.72078
557.87306
541.23820
545.43964
575.37228
591.44887
560.12222
564.79437
601.96214
601.86315
508.69440
520.02167
445.58084
428.21385
485.00875
532.83656
556.60263
524.11414
568.68251
547.07861
495.73638
450.92893
492.39851
496.19382
552.25659
526.77613
594.49780
554.72895
523.19810
506.67165
599.98251
578.00815
546.63792
486.09823
502.51524
537.57233
622.21990
633.60537
603.04878
631.81815
615.89406
605.99323
560.90074
486.29364
514.09102
492.34435
615.44614
624.01077
539.53119
502.74351
397.49438
497.75568
551.57002
690.10291
682.79613
721.21849
598.48467
643.59202
667.58202
626.93518
567.46021
596.31282
628.46931
676.01752
621.33344
630.19018
576.77182
571.45651
486.85457
482.89228
517.41997
550.65205
552.92347
568.76256
501.95818
557.68448
565.64382
615.98774
553.53499
579.36485
523.41408
563.21736
611.28834
632.16779
575.08892
502.04578
472.32437
518.68696
535.45773
561.31491
558.95790
523.64409
505.30230
491.73759
505.00763
545.88619
510.30621
600.66405
551.18959
610.74208
580.59357
626.41307
597.99078
683.29683
647.40472
658.23275
560.62095
505.70544
480.81118
457.36593
554.80340
586.16480
602.61558
625.51149
637.24375
581.54412
578.84667
572.59295
599.80293
549.20862
466.66093
438.40485
450.84502
464.83935
630.42220
545.58158
537.53852
460.55963
510.26361
430.71515
647.62030
683.63085
677.94238
621.46473
530.78301
491.33361
487.15190
589.52427
611.88646
578.40278
570.15466
523.72092
542.30135
551.19913
595.40932
606.89014
583.76190
556.27517
471.96596
456.64109
545.95325
618.40444
615.55740
646.12648
539.12190
481.28947
513.56565
562.48180
511.41325
546.61839
541.73149
601.99493
643.30129
624.43300
571.33649
484.93913
521.65504
471.84111
522.52595
503.98451
597.83368
560.61415
605.23908
684.20000
640.08665
681.61885
608.69157
662.29913
569.77566
570.84124
549.02096
700.92233
707.93733
676.72975
675.79979
612.54835
592.89054
582.43224
590.97829
573.61485
485.53411
563.69135
596.74644
577.62582
540.32903
543.68778
549.89076
491.99489
474.06577
578.06410
579.94496
560.07698
501.80432
587.99356
631.58460
646.83972
648.29497
638.68473
571.68891
543.70376
536.00180
547.37892
600.61760
623.49291
578.11845
609.04670
541.01919
497.28089
446.41269
449.00080
504.33404
494.37647
492.33378
477.08203