# vtk DataFile Version 3.0
VTK from Matlab
ASCII
DATASET STRUCTURED_GRID
DIMENSIONS 28 20 30
POINTS 16800 float
1.00000  1.00000  1.00000
1.00000  2.00000  1.00000
1.00000  3.00000  1.00000
1.00000  4.00000  1.00000
1.00000  5.00000  1.00000
1.00000  6.00000  1.00000
1.00000  7.00000  1.00000
1.00000  8.00000  1.00000
1.00000  9.00000  1.00000
1.00000  10.00000  1.00000
1.00000  11.00000  1.00000
1.00000  12.00000  1.00000
1.00000  13.00000  1.00000
1.00000  14.00000  1.00000
1.00000  15.00000  1.00000
1.00000  16.00000  1.00000
1.00000  17.00000  1.00000
1.00000  18.00000  1.00000
1.00000  19.00000  1.00000
1.00000  20.00000  1.00000
1.00000  21.00000  1.00000
1.00000  22.00000  1.00000
1.00000  23.00000  1.00000
1.00000  24.00000  1.00000
1.00000  25.00000  1.00000
1.00000  26.00000  1.00000
1.00000  27.00000  1.00000
1.00000  28.00000  1.00000
2.00000  1.00000  1.00000
2.00000  2.00000  1.00000
2.00000  3.00000  1.00000
2.00000  4.00000  1.00000
2.00000  5.00000  1.00000
2.00000  6.00000  1.00000
2.00000  7.00000  1.00000
2.00000  8.00000  1.00000
2.00000  9.00000  1.00000
2.00000  10.00000  1.00000
2.00000  11.00000  1.00000
2.00000  12.00000  1.00000
2.00000  13.00000  1.00000
2.00000  14.00000  1.00000
2.00000  15.00000  1.00000
2.00000  16.00000  1.00000
2.00000  17.00000  1.00000
2.00000  18.00000  1.00000
2.00000  19.00000  1.00000
2.00000  20.00000  1.00000
2.00000  21.00000  1.00000
2.00000  22.00000  1.00000
2.00000  23.00000  1.00000
2.00000  24.00000  1.00000
2.00000  25.00000  1.00000
2.00000  26.00000  1.00000
2.00000  27.00000  1.00000
2.00000  28.00000  1.00000
3.00000  1.00000  1.00000
3.00000  2.00000  1.00000
3.00000  3.00000  1.00000
3.00000  4.00000  1.00000
3.00000  5.00000  1.00000
3.00000  6.00000  1.00000
3.00000  7.00000  1.00000
3.00000  8.00000  1.00000
3.00000  9.00000  1.00000
3.00000  10.00000  1.00000
3.00000  11.00000  1.00000
3.00000  12.00000  1.00000
3.00000  13.00000  1.00000
3.00000  14.00000  1.00000
3.00000  15.00000  1.00000
3.00000  16.00000  1.00000
3.00000  17.00000  1.00000
3.00000  18.00000  1.00000
3.00000  19.00000  1.00000
3.00000  20.00000  1.00000
3.00000  21.00000  1.00000
3.00000  22.00000  1.00000
3.00000  23.00000  1.00000
3.00000  24.00000  1.00000
3.00000  25.00000  1.00000
3.00000  26.00000  1.00000
3.00000  27.00000  1.00000
3.00000  28.00000  1.00000
4.00000  1.00000  1.00000
4.00000  2.00000  1.00000
4.00000  3.00000  1.00000
4.00000  4.00000  1.00000
4.00000  5.00000  1.00000
4.00000  6.00000  1.00000
4.00000  7.00000  1.00000
4.00000  8.00000  1.00000
4.00000  9.00000  1.00000
4.00000  10.00000  1.00000
4.00000  11.00000  1.00000
4.00000  12.00000  1.00000
4.00000  13.00000  1.00000
4.00000  14.00000  1.00000
4.00000  15.00000  1.00000
4.00000  16.00000  1.00000
4.00000  17.00000  1.00000
4.00000  18.00000  1.00000
4.00000  19.00000  1.00000
4.00000  20.00000  1.00000
4.00000  21.00000  1.00000
4.00000  22.00000  1.00000
4.00000  23.00000  1.00000
4.00000  24.00000  1.00000
4.00000  25.00000  1.00000
4.00000  26.00000  1.00000
4.00000  27.00000  1.00000
4.00000  28.00000  1.00000
5.00000  1.00000  1.00000
5.00000  2.00000  1.00000
5.00000  3.00000  1.00000
5.00000  4.00000  1.00000
5.00000  5.00000  1.00000
5.00000  6.00000  1.00000
5.00000  7.00000  1.00000
5.00000  8.00000  1.00000
5.00000  9.00000  1.00000
5.00000  10.00000  1.00000
5.00000  11.00000  1.00000
5.00000  12.00000  1.00000
5.00000  13.00000  1.00000
5.00000  14.00000  1.00000
5.00000  15.00000  1.00000
5.00000  16.00000  1.00000
5.00000  17.00000  1.00000
5.00000  18.00000  1.00000
5.00000  19.00000  1.00000
5.00000  20.00000  1.00000
5.00000  21.00000  1.00000
5.00000  22.00000  1.00000
5.00000  23.00000  1.00000
5.00000  24.00000  1.00000
5.00000  25.00000  1.00000
5.00000  26.00000  1.00000
5.00000  27.00000  1.00000
5.00000  28.00000  1.00000
6.00000  1.00000  1.00000
6.00000  2.00000  1.00000
6.00000  3.00000  1.00000
6.00000  4.00000  1.00000
6.00000  5.00000  1.00000
6.00000  6.00000  1.00000
6.00000  7.00000  1.00000
6.00000  8.00000  1.00000
6.00000  9.00000  1.00000
6.00000  10.00000  1.00000
6.00000  11.00000  1.00000
6.00000  12.00000  1.00000
6.00000  13.00000  1.00000
6.00000  14.00000  1.00000
6.00000  15.00000  1.00000
6.00000  16.00000  1.00000
6.00000  17.00000  1.00000
6.00000  18.00000  1.00000
6.00000  19.00000  1.00000
6.00000  20.00000  1.00000
6.00000  21.00000  1.00000
6.00000  22.00000  1.00000
6.00000  23.00000  1.00000
6.00000  24.00000  1.00000
6.00000  25.00000  1.00000
6.00000  26.00000  1.00000
6.00000  27.00000  1.00000
6.00000  28.00000  1.00000
7.00000  1.00000  1.00000
7.00000  2.00000  1.00000
7.00000  3.00000  1.00000
7.00000  4.00000  1.00000
7.00000  5.00000  1.00000
7.00000  6.00000  1.00000
7.00000  7.00000  1.00000
7.00000  8.00000  1.00000
7.00000  9.00000  1.00000
7.00000  10.00000  1.00000
7.00000  11.00000  1.00000
7.00000  12.00000  1.00000
7.00000  13.00000  1.00000
7.00000  14.00000  1.00000
7.00000  15.00000  1.00000
7.00000  16.00000  1.00000
7.00000  17.00000  1.00000
7.00000  18.00000  1.00000
7.00000  19.00000  1.00000
7.00000  20.00000  1.00000
7.00000  21.00000  1.00000
7.00000  22.00000  1.00000
7.00000  23.00000  1.00000
7.00000  24.00000  1.00000
7.00000  25.00000  1.00000
7.00000  26.00000  1.00000
7.00000  27.00000  1.00000
7.00000  28.00000  1.00000
8.00000  1.00000  1.00000
8.00000  2.00000  1.00000
8.00000  3.00000  1.00000
8.00000  4.00000  1.00000
8.00000  5.00000  1.00000
8.00000  6.00000  1.00000
8.00000  7.00000  1.00000
8.00000  8.00000  1.00000
8.00000  9.00000  1.00000
8.00000  10.00000  1.00000
8.00000  11.00000  1.00000
8.00000  12.00000  1.00000
8.00000  13.00000  1.00000
8.00000  14.00000  1.00000
8.00000  15.00000  1.00000
8.00000  16.00000  1.00000
8.00000  17.00000  1.00000
8.00000  18.00000  1.00000
8.00000  19.00000  1.00000
8.00000  20.00000  1.00000
8.00000  21.00000  1.00000
8.00000  22.00000  1.00000
8.00000  23.00000  1.00000
8.00000  24.00000  1.00000
8.00000  25.00000  1.00000
8.00000  26.00000  1.00000
8.00000  27.00000  1.00000
8.00000  28.00000  1.00000
9.00000  1.00000  1.00000
9.00000  2.00000  1.00000
9.00000  3.00000  1.00000
9.00000  4.00000  1.00000
9.00000  5.00000  1.00000
9.00000  6.00000  1.00000
9.00000  7.00000  1.00000
9.00000  8.00000  1.00000
9.00000  9.00000  1.00000
9.00000  10.00000  1.00000
9.00000  11.00000  1.00000
9.00000  12.00000  1.00000
9.00000  13.00000  1.00000
9.00000  14.00000  1.00000
9.00000  15.00000  1.00000
9.00000  16.00000  1.00000
9.00000  17.00000  1.00000
9.00000  18.00000  1.00000
9.00000  19.00000  1.00000
9.00000  20.00000  1.00000
9.00000  21.00000  1.00000
9.00000  22.00000  1.00000
9.00000  23.00000  1.00000
9.00000  24.00000  1.00000
9.00000  25.00000  1.00000
9.00000  26.00000  1.00000
9.00000  27.00000  1.00000
9.00000  28.00000  1.00000
10.00000  1.00000  1.00000
10.00000  2.00000  1.00000
10.00000  3.00000  1.00000
10.00000  4.00000  1.00000
10.00000  5.00000  1.00000
10.00000  6.00000  1.00000
10.00000  7.00000  1.00000
10.00000  8.00000  1.00000
10.00000  9.00000  1.00000
10.00000  10.00000  1.00000
10.00000  11.00000  1.00000
10.00000  12.00000  1.00000
10.00000  13.00000  1.00000
10.00000  14.00000  1.00000
10.00000  15.00000  1.00000
10.00000  16.00000  1.00000
10.00000  17.00000  1.00000
10.00000  18.00000  1.00000
10.00000  19.00000  1.00000
10.00000  20.00000  1.00000
10.00000  21.00000  1.00000
10.00000  22.00000  1.00000
10.00000  23.00000  1.00000
10.00000  24.00000  1.00000
10.00000  25.00000  1.00000
10.00000  26.00000  1.00000
10.00000  27.00000  1.00000
10.00000  28.00000  1.00000
11.00000  1.00000  1.00000
11.00000  2.00000  1.00000
11.00000  3.00000  1.00000
11.00000  4.00000  1.00000
11.00000  5.00000  1.00000
11.00000  6.00000  1.00000
11.00000  7.00000  1.00000
11.00000  8.00000  1.00000
11.00000  9.00000  1.00000
11.00000  10.00000  1.00000
11.00000  11.00000  1.00000
11.00000  12.00000  1.00000
11.00000  13.00000  1.00000
11.00000  14.00000  1.00000
11.00000  15.00000  1.00000
11.00000  16.00000  1.00000
11.00000  17.00000  1.00000
11.00000  18.00000  1.00000
11.00000  19.00000  1.00000
11.00000  20.00000  1.00000
11.00000  21.00000  1.00000
11.00000  22.00000  1.00000
11.00000  23.00000  1.00000
11.00000  24.00000  1.00000
11.00000  25.00000  1.00000
11.00000  26.00000  1.00000
11.00000  27.00000  1.00000
11.00000  28.00000  1.00000
12.00000  1.00000  1.00000
12.00000  2.00000  1.00000
12.00000  3.00000  1.00000
12.00000  4.00000  1.00000
12.00000  5.00000  1.00000
12.00000  6.00000  1.00000
12.00000  7.00000  1.00000
12.00000  8.00000  1.00000
12.00000  9.00000  1.00000
12.00000  10.00000  1.00000
12.00000  11.00000  1.00000
12.00000  12.00000  1.00000
12.00000  13.00000  1.00000
12.00000  14.00000  1.00000
12.00000  15.00000  1.00000
12.00000  16.00000  1.00000
12.00000  17.00000  1.00000
12.00000  18.00000  1.00000
12.00000  19.00000  1.00000
12.00000  20.00000  1.00000
12.00000  21.00000  1.00000
12.00000  22.00000  1.00000
12.00000  23.00000  1.00000
12.00000  24.00000  1.00000
12.00000  25.00000  1.00000
12.00000  26.00000  1.00000
12.00000  27.00000  1.00000
12.00000  28.00000  1.00000
13.00000  1.00000  1.00000
13.00000  2.00000  1.00000
13.00000  3.00000  1.00000
13.00000  4.00000  1.00000
13.00000  5.00000  1.00000
13.00000  6.00000  1.00000
13.00000  7.00000  1.00000
13.00000  8.00000  1.00000
13.00000  9.00000  1.00000
13.00000  10.00000  1.00000
13.00000  11.00000  1.00000
13.00000  12.00000  1.00000
13.00000  13.00000  1.00000
13.00000  14.00000  1.00000
13.00000  15.00000  1.00000
13.00000  16.00000  1.00000
13.00000  17.00000  1.00000
13.00000  18.00000  1.00000
13.00000  19.00000  1.00000
13.00000  20.00000  1.00000
13.00000  21.00000  1.00000
13.00000  22.00000  1.00000
13.00000  23.00000  1.00000
13.00000  24.00000  1.00000
13.00000  25.00000  1.00000
13.00000  26.00000  1.00000
13.00000  27.00000  1.00000
13.00000  28.00000  1.00000
14.00000  1.00000  1.00000
14.00000  2.00000  1.00000
[...]
POINT_DATA 16800
SCALARS Pe float
LOOKUP_TABLE default
0.00000
0.00000
0.00000
0.00000
0.00000
0.00000
0.00000
0.00000
0.00000
0.00000
0.00000
0.00000
0.00000
0.00000
0.00000
0.00000
0.00000
0.00000
8.22171
7.31992
6.54597
5.74855
6.40370
5.93601
7.25567
4.81270
5.97364
5.31567
0.00000
0.00000
0.00000
0.00000
0.00000
0.00000
0.00000
0.00000
0.00000
0.00000
0.00000
0.00000
0.00000
0.00000
0.00000
0.00000
0.00000
0.00000
6.69893
7.28246
6.36286
5.27363
4.89783
4.96940
5.94395
6.47496
6.18869
4.98816
0.00000
0.00000
0.00000
0.00000
0.00000
0.00000
0.00000
0.00000
0.00000
0.00000
0.00000
0.00000
0.00000
0.00000
0.00000
0.00000
5.84966
5.09700
6.37772
5.99711
6.37874
5.51001
6.52704
6.03406
7.23294
7.60162
0.00000
0.00000
0.00000
0.00000
0.00000
0.00000
0.00000
0.00000
0.00000
0.00000
0.00000
0.00000
0.00000
0.00000
0.00000
0.00000
0.00000
0.00000
5.11640
5.40917
6.58087
7.24265
6.87133
5.99129
5.04887
5.04408
5.52810
6.98404
0.00000
0.00000
0.00000
0.00000
0.00000
0.00000
0.00000
0.00000
0.00000
0.00000
0.00000
0.00000
0.00000
0.00000
0.00000
0.00000
0.00000
0.00000
5.31055
5.33456
7.33907
8.53603
9.48591
8.23438
6.15879
5.82285
5.31907
5.00031
0.00000
0.00000
0.00000
0.00000
0.00000
0.00000
0.00000
0.00000
0.00000
0.00000
0.00000
0.00000
0.00000
0.00000
0.00000
0.00000
0.00000
0.00000
5.57340
5.71808
6.44878
7.76304
9.34671
9.32342
6.53157
5.77951
4.75175
4.25204
0.00000
0.00000
0.00000
0.00000
0.00000
0.00000
0.00000
0.00000
0.00000
0.00000
0.00000
0.00000
0.00000
0.00000
0.00000
0.00000
5.77722
6.01792
6.21010
6.80296
6.08967
6.10822
6.14487
6.06996
6.28804
6.49292
0.00000
0.00000
0.00000
0.00000
0.00000
0.00000
0.00000
0.00000
0.00000
0.00000
0.00000
0.00000
0.00000
0.00000
0.00000
0.00000
0.00000
0.00000
5.73549
5.28163
5.45669
6.00381
7.11791
7.18816
5.18839
5.33716
6.62495
6.98930
0.00000
0.00000
0.00000
0.00000
0.00000
0.00000
0.00000
0.00000
0.00000
0.00000
0.00000
0.00000
0.00000
0.00000
0.00000
0.00000
0.00000
0.00000
7.68230
6.60451
6.03049
6.24530
5.73143
6.63636
5.83530
5.93112
6.81746
7.43761
0.00000
0.00000
0.00000
0.00000
0.00000
0.00000
0.00000
0.00000
0.00000
0.00000
0.00000
0.00000
0.00000
0.00000
0.00000
0.00000
0.00000
0.00000
9.76125
8.15446
7.00860
6.61970
6.24290
7.50457
7.12460
12.15436
8.60484
8.81449
0.00000
0.00000
0.00000
0.00000
0.00000
0.00000
0.00000
0.00000
0.00000
0.00000
0.00000
0.00000
0.00000
0.00000
0.00000
0.00000
0.00000
0.00000
5.57110
5.35596
8.15251
6.68932
6.42973
6.71787
7.65469
8.22067
5.75209
6.66421
0.00000
0.00000
0.00000
0.00000
0.00000
0.00000
0.00000
0.00000
0.00000
0.00000
0.00000
0.00000
0.00000
0.00000
0.00000
0.00000
0.00000
0.00000
5.06575
5.27679
5.63684
6.38400
6.50638
6.02974
5.98104
6.13608
7.02025
9.43337
0.00000
0.00000
0.00000
0.00000
0.00000
0.00000
0.00000
0.00000
0.00000
0.00000
0.00000
0.00000
0.00000
0.00000
0.00000
0.00000
0.00000
0.00000
6.12670
7.88969
8.42448
7.56410
5.36437
5.50179
5.86750
5.27084
4.76120
5.28897
0.00000
0.00000
0.00000
0.00000
0.00000
0.00000
0.00000
0.00000
0.00000
0.00000
0.00000
0.00000
0.00000
0.00000
0.00000
0.00000
0.00000
0.00000
6.66472
6.02660
5.71635
6.50205
6.07175
7.49856
7.93521
7.70885
6.14473
6.57089
0.00000
0.00000
0.00000
0.00000
0.00000
0.00000
0.00000
0.00000
0.00000
0.00000
0.00000
0.00000
0.00000
0.00000
0.00000
0.00000
0.00000
0.00000
6.84405
5.91812
5.37302
4.58405
5.11485
5.66911
6.92185
6.79011
6.29171
5.93667
0.00000
0.00000
0.00000
0.00000
0.00000
0.00000
0.00000
0.00000
0.00000
0.00000
0.00000
0.00000
0.00000
0.00000
0.00000
0.00000
0.00000
0.00000
6.43444
6.89311
6.46370
5.54943
4.70433
4.77250
5.34707
6.17843
6.62872
8.28907
0.00000
0.00000
0.00000
0.00000
0.00000
0.00000
0.00000
0.00000
0.00000
0.00000
0.00000
0.00000
0.00000
0.00000
0.00000
0.00000
0.00000
0.00000
0.00000
0.00000
7.82681
7.00844
6.58807
5.65092
4.97696
6.48317
6.33254
7.59977
6.32951
5.98497
0.00000
0.00000
0.00000
0.00000
0.00000
0.00000
0.00000
0.00000
0.00000
0.00000
0.00000
0.00000
0.00000
0.00000
0.00000
0.00000
0.00000
0.00000
8.47826
6.80780
5.31929
5.46824
5.76040
5.56882
5.67633
5.21676
5.44313
4.63598
0.00000
0.00000
0.00000
0.00000
0.00000
0.00000
0.00000
0.00000
0.00000
0.00000
0.00000
0.00000
0.00000
0.00000
0.00000
0.00000
0.00000
0.00000
6.34533
6.66627
6.80355
8.32726
6.12990
6.66113
7.05551
7.28305
7.54817
7.95674
0.00000
0.00000
0.00000
0.00000
0.00000
0.00000
0.00000
0.00000
0.00000
0.00000
0.00000
0.00000
0.00000
0.00000
0.00000
0.00000
0.00000
0.00000
5.92995
6.28133
5.47596
6.42830
6.90540
7.48211
6.87296
6.96504
6.76839
9.76221
0.00000
0.00000
0.00000
0.00000
0.00000
0.00000
0.00000
0.00000
0.00000
0.00000
0.00000
0.00000
0.00000
0.00000
0.00000
0.00000
0.00000
0.00000
0.00000
0.00000
9.65376
7.85724
7.47914
5.78385
9.90486
5.89693
8.54956
4.83204
5.94803
5.50342
0.00000
0.00000
0.00000
0.00000
0.00000
0.00000
0.00000
0.00000
0.00000
0.00000
0.00000
0.00000
0.00000
0.00000
0.00000
0.00000
0.00000
0.00000
6.89633
6.80657
6.36493
5.60786
4.95695
4.98190
6.37627
5.92385
6.03295
5.33596
0.00000
0.00000
0.00000
0.00000
0.00000
0.00000
0.00000
0.00000
0.00000
0.00000
0.00000
0.00000
0.00000
0.00000
0.00000
0.00000
6.15549
5.28837
5.59550
6.03753
5.98487
5.87521
6.17234
5.91777
7.37827
8.30065
0.00000
0.00000
0.00000
0.00000
0.00000
0.00000
0.00000
0.00000
0.00000
0.00000
0.00000
0.00000
0.00000
0.00000
0.00000
0.00000
0.00000
0.00000
5.00662
5.49521
6.23963
7.53027
5.68539
5.69835
4.98869
5.39851
5.13141
6.54563
0.00000
0.00000
0.00000
0.00000
0.00000
0.00000
0.00000
0.00000
0.00000
0.00000
0.00000
0.00000
0.00000
0.00000
0.00000
0.00000
0.00000
0.00000
5.69674
5.19952
6.72773
8.61340
8.32423
7.55904
6.91326
6.61271
5.22986
5.10093
0.00000
0.00000
0.00000
0.00000
0.00000
0.00000
0.00000
0.00000
0.00000
0.00000
0.00000
0.00000
0.00000
0.00000
0.00000
0.00000
0.00000
0.00000
6.20595
6.01764
6.75900
8.63802
9.24954
9.99955
6.10231
5.97762
4.83647
4.79781
0.00000
0.00000
0.00000
0.00000
0.00000
0.00000
0.00000
0.00000
0.00000
0.00000
0.00000
0.00000
0.00000
0.00000
0.00000
0.00000
6.30318
6.02247
7.65131
6.67789
6.67564
5.96562
6.00874
5.97697
5.99742
5.92068
0.00000
0.00000
0.00000
0.00000
0.00000
0.00000
0.00000
0.00000
0.00000
0.00000
0.00000
0.00000
0.00000
0.00000
0.00000
0.00000
0.00000
0.00000
5.92664
5.35300
6.02709
6.25250
6.56563
7.00201
5.36395
5.87119
6.15055
7.89834
0.00000
0.00000
0.00000
0.00000
0.00000
0.00000
0.00000
0.00000
0.00000
0.00000
0.00000
0.00000
0.00000
0.00000
0.00000
0.00000
0.00000
0.00000
7.22554
7.30233
6.21694
6.47661
6.24425
6.52592
6.18636
6.15645
6.44862
7.79193
0.00000
0.00000
0.00000
0.00000
0.00000
0.00000
0.00000
0.00000
0.00000
0.00000
0.00000
0.00000
0.00000
0.00000
0.00000
0.00000
0.00000
0.00000
10.82362
7.61653
7.68900
5.54326
6.13699
6.27285
10.10077
9.96227
9.89041
7.66137
0.00000
0.00000
0.00000
0.00000
0.00000
0.00000
0.00000
0.00000
0.00000
0.00000
0.00000
0.00000
0.00000
0.00000
0.00000
0.00000
0.00000
0.00000
5.21663
5.48981
7.93522
6.97711
6.47972
6.19095
7.33827
6.67085
5.66175
5.80066
0.00000
0.00000
0.00000
0.00000
0.00000
0.00000
0.00000
0.00000
0.00000
0.00000
0.00000
0.00000
0.00000
0.00000
0.00000
0.00000
0.00000
0.00000
4.47831
5.17361
5.97859
6.38645
5.83500
5.25352
5.85611
6.13905
7.15405
7.90164
0.00000
0.00000
0.00000
0.00000
0.00000
0.00000
0.00000
0.00000
0.00000
0.00000
0.00000
0.00000
0.00000
0.00000
0.00000
0.00000
0.00000
0.00000
6.53993
7.82521
8.59939
7.81746
5.08644
5.78458
5.50028
5.92422
4.73084
5.14926
0.00000
0.00000
0.00000
0.00000
0.00000
0.00000
0.00000
0.00000
0.00000
0.00000
0.00000
0.00000
0.00000
0.00000
0.00000
0.00000
0.00000
0.00000
7.04743
6.31446
5.36959
5.87064
5.68944
9.46936
7.36889
7.82867
6.19378
7.80509
0.00000
0.00000
0.00000
0.00000
0.00000
0.00000
0.00000
0.00000
0.00000
0.00000
0.00000
0.00000
0.00000
0.00000
0.00000
0.00000
0.00000
0.00000
7.16198
6.34235
5.60672
5.09777
5.74767
5.86332
7.12842
6.90229
7.00292
6.05242
0.00000
0.00000
0.00000
0.00000
0.00000
0.00000
0.00000
0.00000
0.00000
0.00000
0.00000
0.00000
0.00000
0.00000
0.00000
0.00000
0.00000
0.00000
6.15200
6.84161
7.06965
5.40757
4.75672
4.63749
5.01495
6.25516
6.85364
7.85219
0.00000
0.00000
0.00000
0.00000
0.00000
0.00000
0.00000
0.00000
0.00000
0.00000
0.00000
0.00000
0.00000
0.00000
0.00000
0.00000
0.00000
0.00000
0.00000
0.00000
9.32211
6.99512
7.83812
6.16237
6.61563
6.36362
7.35315
7.47218
7.52343
5.65112
0.00000
0.00000
0.00000
0.00000
0.00000
0.00000
0.00000
0.00000
0.00000
0.00000
0.00000
0.00000
0.00000
0.00000
0.00000
0.00000
0.00000
0.00000
6.94860
6.24344
5.06481
4.38993
5.74580
5.40497
5.44025
5.16741
5.32757
5.22650
0.00000
0.00000
0.00000
0.00000
0.00000
0.00000
0.00000
0.00000
0.00000
0.00000
0.00000
0.00000
0.00000
0.00000
0.00000
0.00000
0.00000
0.00000
6.62056
7.59647
6.87297
8.19645
6.71542
6.56539
6.37936
6.80719
7.11762
7.38404
0.00000
0.00000
0.00000
0.00000
0.00000
0.00000
0.00000
0.00000
0.00000
0.00000
0.00000
0.00000
0.00000
0.00000
0.00000
0.00000
0.00000
0.00000
5.67814
5.92116
5.32473
6.95807
6.66071
7.14616
6.30646
5.64558
7.32086
9.14179
0.00000
0.00000
0.00000
0.00000
0.00000
0.00000
0.00000
0.00000
0.00000
0.00000
0.00000
0.00000
0.00000
0.00000
0.00000
0.00000
9.18127
7.67797
7.25978
6.37061
8.08776
6.00397
7.93608
5.41974
5.51742
5.23543
0.00000
0.00000
0.00000
0.00000
0.00000
0.00000
0.00000
0.00000
0.00000
0.00000
0.00000
0.00000
0.00000
0.00000
0.00000
0.00000
0.00000
0.00000
7.61710
7.30516
6.40532
5.13001
5.23361
4.65979
6.61589
6.08778
6.19201
5.25439
0.00000
0.00000
0.00000
0.00000
0.00000
0.00000
0.00000
0.00000
0.00000
0.00000
0.00000
0.00000
0.00000
0.00000
0.00000
0.00000
5.73226
5.23252
6.03894
5.47098
6.02831
5.61125
5.74003
5.29779
6.72671
7.30862
0.00000
0.00000
0.00000
0.00000
0.00000
0.00000
0.00000
0.00000
0.00000
0.00000
0.00000
0.00000
0.00000
0.00000
0.00000
0.00000
0.00000
0.00000
5.21501
5.57112
6.44517
7.09288
6.11830
5.53274
5.11136
5.15121
5.58608
6.32083
0.00000
0.00000
0.00000
0.00000
0.00000
0.00000
0.00000
0.00000
0.00000
0.00000
0.00000
0.00000
0.00000
0.00000
0.00000
0.00000
0.00000
0.00000
5.35904
5.02264
7.23184
7.93512
8.85047
7.26998
6.37100
6.08387
5.58757
5.60171
0.00000
0.00000
0.00000
0.00000
0.00000
0.00000
0.00000
0.00000
0.00000
0.00000
0.00000
0.00000
0.00000
0.00000
0.00000
0.00000
0.00000
0.00000
6.63646
6.40566
6.90097
7.44729
9.18437
9.64029
6.20542
5.92188
5.19147
4.56980
0.00000
0.00000
0.00000
0.00000
0.00000
0.00000
0.00000
0.00000
0.00000
0.00000
0.00000
0.00000
0.00000
0.00000
0.00000
0.00000
5.62465
5.82197
6.67919
6.54974
6.15448
5.74785
5.53253
6.12164
6.32173
5.85726
0.00000
0.00000
0.00000
0.00000
0.00000
0.00000
0.00000
0.00000
0.00000
0.00000
0.00000
0.00000
0.00000
0.00000
0.00000
0.00000
0.00000
0.00000
5.72464
5.39862
6.04853
5.88160
6.87248
6.67708
5.17193
5.22544
6.13007
8.07601
0.00000
0.00000
0.00000
0.00000
0.00000
0.00000
0.00000
0.00000
0.00000
0.00000
0.00000
0.00000
0.00000
0.00000
0.00000
0.00000
0.00000
0.00000
6.60780
7.34586
5.81660
5.96021
6.08361
5.95260
6.42370
5.59191
6.25256
6.81698
0.00000
0.00000
0.00000
0.00000
0.00000
0.00000
0.00000
0.00000
0.00000
0.00000
0.00000
0.00000
0.00000
0.00000
0.00000
0.00000
0.00000
0.00000
9.65612
6.94640
7.82102
5.87102
7.02960
6.34246
9.11575
10.68452
9.93420
7.88256
0.00000
0.00000
0.00000
0.00000
0.00000
0.00000
0.00000
0.00000
0.00000
0.00000
0.00000
0.00000
0.00000
0.00000
0.00000
0.00000
0.00000
0.00000
5.53535
5.42106
7.86644
6.61828
6.62221
6.35958
7.29270
6.66535
5.87835
5.46329
0.00000
0.00000
0.00000
0.00000
0.00000
0.00000
0.00000
0.00000
0.00000
0.00000
0.00000
0.00000
0.00000
0.00000
0.00000
0.00000
0.00000
0.00000
4.28162
5.36902
5.82652
6.13023
5.42002
5.48315
6.01228
6.51155
6.74263
7.75845
0.00000
0.00000
0.00000
0.00000
0.00000
0.00000
0.00000
0.00000
0.00000
0.00000
0.00000
0.00000
0.00000
0.00000
0.00000
0.00000
0.00000
0.00000
7.36593
8.28885
8.97399
7.07339
5.66599
6.34672
5.53333
5.80765
4.94115
4.94908
0.00000
0.00000
0.00000
0.00000
0.00000
0.00000
0.00000
0.00000
0.00000
0.00000
0.00000
0.00000
0.00000
0.00000
0.00000
0.00000
0.00000
0.00000
8.76186
6.02282
5.97409
5.70500
6.82680
9.04852
7.05345
7.31018
6.04448
6.64237
0.00000
0.00000
0.00000
0.00000
0.00000
0.00000
0.00000
0.00000
0.00000
0.00000
0.00000
0.00000
0.00000
0.00000
0.00000
0.00000
0.00000
0.00000
6.79822
6.25411
5.52670
4.84100
5.49750
5.50368
7.08475
5.97348
6.53855
5.77256
0.00000
0.00000
0.00000
0.00000
0.00000
0.00000
0.00000
0.00000
0.00000
0.00000
0.00000
0.00000
0.00000
0.00000
0.00000
0.00000
0.00000
0.00000
7.18949
6.62742
6.33729
5.23957
4.69152
4.61684
4.88686
5.23118
7.12337
8.05214
0.00000
0.00000
0.00000
0.00000
0.00000
0.00000
0.00000
0.00000
0.00000
0.00000
0.00000
0.00000
0.00000
0.00000
0.00000
0.00000
0.00000
0.00000
0.00000
0.00000
8.63978
6.18348
6.81257
5.94793
5.92456
5.85418
6.51038
7.17988
6.33350
6.01123
0.00000
0.00000
0.00000
0.00000
0.00000
0.00000
0.00000
0.00000
0.00000
0.00000
0.00000
0.00000
0.00000
0.00000
0.00000
0.00000
0.00000
0.00000
6.96239
6.07512
5.16916
5.06523
5.42867
5.22408
5.47868
4.87941
4.96296
4.89699
0.00000
0.00000
0.00000
0.00000
0.00000
0.00000
0.00000
0.00000
0.00000
0.00000
0.00000
0.00000
0.00000
0.00000
0.00000
0.00000
0.00000
0.00000
6.00136
7.52357
8.43209
7.61858
6.72983
6.75591
6.84197
6.87435
6.67550
6.66125
0.00000
0.00000
0.00000
0.00000
0.00000
0.00000
0.00000
0.00000
0.00000
0.00000
0.00000
0.00000
0.00000
0.00000
0.00000
0.00000
0.00000
0.00000
5.99168
5.58916
5.19170
5.99199
6.84902
6.55773
5.89640
4.96290
7.06018
7.47151
0.00000
0.00000
0.00000
0.00000
0.00000
0.00000
0.00000
0.00000
0.00000
0.00000
0.00000
0.00000
0.00000
0.00000
0.00000
0.00000
0.00000
0.00000
0.00000
0.00000
8.59765
7.34311
6.43634
6.96156
7.87710
7.16915
7.84466
5.77615
5.74280
5.27067
0.00000
0.00000
0.00000
0.00000
0.00000
0.00000
0.00000
0.00000
0.00000
0.00000
0.00000
0.00000
0.00000
0.00000
0.00000
0.00000
0.00000
0.00000
7.20198
6.91699
6.47961
6.00288
4.96377
4.75112
5.90726
6.24174
5.78132
5.17863
0.00000
0.00000
0.00000
0.00000
0.00000
0.00000
0.00000
0.00000
0.00000
0.00000
0.00000
0.00000
0.00000
0.00000
0.00000
0.00000
5.70831
5.77166
6.47433
5.85496
6.32093
5.67810
5.70580
5.19299
6.95166
6.55703
0.00000
0.00000
0.00000
0.00000
0.00000
0.00000
0.00000
0.00000
0.00000
0.00000
0.00000
0.00000
0.00000
0.00000
0.00000
0.00000
0.00000
0.00000
5.67883
5.67633
6.27512
6.88064
6.17034
5.53406
5.30542
5.02245
5.48311
6.19096
0.00000
0.00000
0.00000
0.00000
0.00000
0.00000
0.00000
0.00000
0.00000
0.00000
0.00000
0.00000
0.00000
0.00000
0.00000
0.00000
0.00000
0.00000
5.42205
5.32507
6.41933
7.10646
7.68930
8.31829
6.14814
5.97225
5.59674
5.20211
0.00000
0.00000
0.00000
0.00000
0.00000
0.00000
0.00000
0.00000
0.00000
0.00000
0.00000
0.00000
0.00000
0.00000
0.00000
0.00000
0.00000
0.00000
6.32967
5.71296
6.99002
6.90220
7.77504
7.72461
6.62812
5.97864
4.97168
4.68319
0.00000
0.00000
0.00000
0.00000
0.00000
0.00000
0.00000
0.00000
0.00000
0.00000
0.00000
0.00000
0.00000
0.00000
0.00000
0.00000
5.65145
6.14787
6.64176
6.69427
5.95470
5.72420
5.67073
5.98418
6.03574
5.73922
0.00000
0.00000
0.00000
0.00000
0.00000
0.00000
0.00000
0.00000
0.00000
0.00000
0.00000
0.00000
0.00000
0.00000
0.00000
0.00000
0.00000
0.00000
6.04408
5.65751
5.92160
6.69675
6.56008
6.00785
5.50351
5.96981
6.24462
6.99624
0.00000
0.00000
0.00000
0.00000
0.00000
0.00000
0.00000
0.00000
0.00000
0.00000
0.00000
0.00000
0.00000
0.00000
0.00000
0.00000
0.00000
0.00000
7.28660
7.21636
6.05103
6.15938
6.95148
6.57237
6.25343
6.16029
6.57854
6.77784
0.00000
0.00000
0.00000
0.00000
0.00000
0.00000
0.00000
0.00000
0.00000
0.00000
0.00000
0.00000
0.00000
0.00000
0.00000
0.00000
0.00000
0.00000
9.93032
7.04432
6.81649
5.87533
6.41494
6.98029
7.80658
10.16565
8.65744
7.94598
0.00000
0.00000
0.00000
0.00000
0.00000
0.00000
0.00000
0.00000
0.00000
0.00000
0.00000
0.00000
0.00000
0.00000
0.00000
0.00000
0.00000
0.00000
5.78578
5.70240
7.55350
6.83272
6.81016
7.04261
7.35100
7.73761
5.88741
5.38010
0.00000
0.00000
0.00000
0.00000
0.00000
0.00000
0.00000
0.00000
0.00000
0.00000
0.00000
0.00000
0.00000
0.00000
0.00000
0.00000
0.00000
0.00000
4.71552
5.51856
5.89706
6.10251
5.38329
5.68937
6.00682
5.77724
6.73518
7.98997
0.00000
0.00000
0.00000
0.00000
0.00000
0.00000
0.00000
0.00000
0.00000
0.00000
0.00000
0.00000
0.00000
0.00000
0.00000
0.00000
0.00000
0.00000
6.09218
7.89383
8.75153
7.43801
5.34304
6.32539
5.36242
6.19058
5.08981
4.95988
0.00000
0.00000
0.00000
0.00000
0.00000
0.00000
0.00000
0.00000
0.00000
0.00000
0.00000
0.00000
0.00000
0.00000
0.00000
0.00000
0.00000
0.00000
8.62100
6.13760
5.29563
5.60892
6.79541
8.59598
7.62691
6.65926
6.98854
6.51715
0.00000
0.00000
0.00000
0.00000
0.00000
0.00000
0.00000
0.00000
0.00000
0.00000
0.00000
0.00000
0.00000
0.00000
0.00000
0.00000
0.00000
0.00000
6.42138
6.69745
5.91613
5.73176
5.60603
6.29199
6.36746
7.04591
6.42014
5.90328
0.00000
0.00000
0.00000
0.00000
0.00000
0.00000
0.00000
0.00000
0.00000
0.00000
0.00000
0.00000
0.00000
0.00000
0.00000
0.00000
0.00000
0.00000
7.56482
6.77454
6.84725
5.10489
5.15325
4.78780
4.73476
5.32548
6.82867
8.05726
0.00000
0.00000
0.00000
0.00000
0.00000
0.00000
0.00000
0.00000
0.00000
0.00000
0.00000
0.00000
0.00000
0.00000
0.00000
0.00000
0.00000
0.00000
0.00000
0.00000
8.09156
6.45419
6.59468
5.93116
5.87384
5.86451
6.46485
6.91380
6.19583
5.51676
0.00000
0.00000
0.00000
0.00000
0.00000
0.00000
0.00000
0.00000
0.00000
0.00000
0.00000
0.00000
0.00000
0.00000
0.00000
0.00000
0.00000
0.00000
6.41197
5.60591
5.10866
4.94449
5.05731
4.96608
5.17522
4.60187
4.89721
4.58989
0.00000
0.00000
0.00000
0.00000
0.00000
0.00000
0.00000
0.00000
0.00000
0.00000
0.00000
0.00000
0.00000
0.00000
0.00000
0.00000
0.00000
0.00000
6.50601
7.52099
8.23440
8.02111
6.70969
7.27847
6.81401
6.52256
6.84977
6.93623
0.00000
0.00000
0.00000
0.00000
0.00000
0.00000
0.00000
0.00000
0.00000
0.00000
0.00000
0.00000
0.00000
0.00000
0.00000
0.00000
0.00000
0.00000
5.46296
5.88813
5.19930
5.71342
6.89960
6.41948
5.72354
5.08618
7.04897
6.83461
0.00000
0.00000
0.00000
0.00000
0.00000
0.00000
0.00000
0.00000
0.00000
0.00000
0.00000
0.00000
0.00000
0.00000
0.00000
0.00000
0.00000
0.00000
8.27606
7.75680
7.04986
6.27671
7.84972
8.00256
8.07184
5.57453
5.92038
5.01173
0.00000
0.00000
0.00000
0.00000
0.00000
0.00000
0.00000
0.00000
0.00000
0.00000
0.00000
0.00000
0.00000
0.00000
0.00000
0.00000
0.00000
0.00000
7.57694
6.76417
6.57392
5.00919
5.14009
4.70151
5.87919
6.17904
5.66115
5.17863
0.00000
0.00000
0.00000
0.00000
0.00000
0.00000
0.00000
0.00000
0.00000
0.00000
0.00000
0.00000
0.00000
0.00000
0.00000
0.00000
5.93857
5.52339
6.09551
5.54020
6.21194
5.34782
5.81828
5.20050
6.37662
5.97699
0.00000
0.00000
0.00000
0.00000
0.00000
0.00000
0.00000
0.00000
0.00000
0.00000
0.00000
0.00000
0.00000
0.00000
0.00000
0.00000
0.00000
0.00000
5.26589
5.53474
6.08358
6.95313
5.32918
5.58095
5.35976
5.25858
6.33405
5.89819
0.00000
0.00000
0.00000
0.00000
0.00000
0.00000
0.00000
0.00000
0.00000
0.00000
0.00000
0.00000
0.00000
0.00000
0.00000
0.00000
5.33136
5.33406
6.53602
6.61309
8.19759
8.36141
5.99619
6.25782
5.48359
5.28271
0.00000
0.00000
0.00000
0.00000
0.00000
0.00000
0.00000
0.00000
0.00000
0.00000
0.00000
0.00000
0.00000
0.00000
0.00000
0.00000
0.00000
0.00000
6.45492
5.87199
6.65036
7.50422
7.68996
7.58363
6.00487
7.55831
5.50389
5.01002
0.00000
0.00000
0.00000
0.00000
0.00000
0.00000
0.00000
0.00000
0.00000
0.00000
0.00000
0.00000
0.00000
0.00000
0.00000
0.00000
0.00000
0.00000
5.97343
6.22312
7.15466
6.23753
5.97766
5.90923
5.86282
6.72370
6.23480
6.34699
0.00000
0.00000
0.00000
0.00000
0.00000
0.00000
0.00000
0.00000
0.00000
0.00000
0.00000
0.00000
0.00000
0.00000
0.00000
0.00000
0.00000
0.00000
5.83477
5.47069
5.66555
5.87492
6.52400
5.91577
5.10918
5.32525
6.10409
7.00046
0.00000
0.00000
0.00000
0.00000
0.00000
0.00000
0.00000
0.00000
0.00000
0.00000
0.00000
0.00000
0.00000
0.00000
0.00000
0.00000
0.00000
0.00000
7.97905
6.54349
6.01557
5.81543
6.63996
5.99540
6.37262
5.91909
6.27043
5.85892
0.00000
0.00000
0.00000
0.00000
0.00000
0.00000
0.00000
0.00000
0.00000
0.00000