# vtk DataFile Version 3.0
VTK from Matlab
ASCII
DATASET STRUCTURED_GRID
DIMENSIONS 28 20 30
POINTS 16800 float
1.00000  1.00000  1.00000
1.00000  2.00000  1.00000
1.00000  3.00000  1.00000
1.00000  4.00000  1.00000
1.00000  5.00000  1.00000
1.00000  6.00000  1.00000
1.00000  7.00000  1.00000
1.00000  8.00000  1.00000
1.00000  9.00000  1.00000
1.00000  10.00000  1.00000
1.00000  11.00000  1.00000
1.00000  12.00000  1.00000
1.00000  13.00000  1.00000
1.00000  14.00000  1.00000
1.00000  15.00000  1.00000
1.00000  16.00000  1.00000
1.00000  17.00000  1.00000
1.00000  18.00000  1.00000
1.00000  19.00000  1.00000
1.00000  20.00000  1.00000
1.00000  21.00000  1.00000
1.00000  22.00000  1.00000
1.00000  23.00000  1.00000
1.00000  24.00000  1.00000
1.00000  25.00000  1.00000
1.00000  26.00000  1.00000
1.00000  27.00000  1.00000
1.00000  28.00000  1.00000
2.00000  1.00000  1.00000
2.00000  2.00000  1.00000
2.00000  3.00000  1.00000
2.00000  4.00000  1.00000
2.00000  5.00000  1.00000
2.00000  6.00000  1.00000
2.00000  7.00000  1.00000
2.00000  8.00000  1.00000
2.00000  9.00000  1.00000
2.00000  10.00000  1.00000
2.00000  11.00000  1.00000
2.00000  12.00000  1.00000
2.00000  13.00000  1.00000
2.00000  14.00000  1.00000
2.00000  15.00000  1.00000
2.00000  16.00000  1.00000
2.00000  17.00000  1.00000
2.00000  18.00000  1.00000
2.00000  19.00000  1.00000
2.00000  20.00000  1.00000
2.00000  21.00000  1.00000
2.00000  22.00000  1.00000
2.00000  23.00000  1.00000
2.00000  24.00000  1.00000
2.00000  25.00000  1.00000
2.00000  26.00000  1.00000
2.00000  27.00000  1.00000
2.00000  28.00000  1.00000
3.00000  1.00000  1.00000
3.00000  2.00000  1.00000
3.00000  3.00000  1.00000
3.00000  4.00000  1.00000
3.00000  5.00000  1.00000
3.00000  6.00000  1.00000
3.00000  7.00000  1.00000
3.00000  8.00000  1.00000
3.00000  9.00000  1.00000
3.00000  10.00000  1.00000
3.00000  11.00000  1.00000
3.00000  12.00000  1.00000
3.00000  13.00000  1.00000
3.00000  14.00000  1.00000
3.00000  15.00000  1.00000
3.00000  16.00000  1.00000
3.00000  17.00000  1.00000
3.00000  18.00000  1.00000
3.00000  19.00000  1.00000
3.00000  20.00000  1.00000
3.00000  21.00000  1.00000
3.00000  22.00000  1.00000
3.00000  23.00000  1.00000
3.00000  24.00000  1.00000
3.00000  25.00000  1.00000
3.00000  26.00000  1.00000
3.00000  27.00000  1.00000
3.00000  28.00000  1.00000
4.00000  1.00000  1.00000
4.00000  2.00000  1.00000
4.00000  3.00000  1.00000
4.00000  4.00000  1.00000
4.00000  5.00000  1.00000
4.00000  6.00000  1.00000
4.00000  7.00000  1.00000
4.00000  8.00000  1.00000
4.00000  9.00000  1.00000
4.00000  10.00000  1.00000
4.00000  11.00000  1.00000
4.00000  12.00000  1.00000
4.00000  13.00000  1.00000
4.00000  14.00000  1.00000
4.00000  15.00000  1.00000
4.00000  16.00000  1.00000
4.00000  17.00000  1.00000
4.00000  18.00000  1.00000
4.00000  19.00000  1.00000
4.00000  20.00000  1.00000
4.00000  21.00000  1.00000
4.00000  22.00000  1.00000
4.00000  23.00000  1.00000
4.00000  24.00000  1.00000
4.00000  25.00000  1.00000
4.00000  26.00000  1.00000
4.00000  27.00000  1.00000
4.00000  28.00000  1.00000
5.00000  1.00000  1.00000
5.00000  2.00000  1.00000
5.00000  3.00000  1.00000
5.00000  4.00000  1.00000
5.00000  5.00000  1.00000
5.00000  6.00000  1.00000
5.00000  7.00000  1.00000
5.00000  8.00000  1.00000
5.00000  9.00000  1.00000
5.00000  10.00000  1.00000
5.00000  11.00000  1.00000
5.00000  12.00000  1.00000
5.00000  13.00000  1.00000
5.00000  14.00000  1.00000
5.00000  15.00000  1.00000
5.00000  16.00000  1.00000
5.00000  17.00000  1.00000
5.00000  18.00000  1.00000
5.00000  19.00000  1.00000
5.00000  20.00000  1.00000
5.00000  21.00000  1.00000
5.00000  22.00000  1.00000
5.00000  23.00000  1.00000
5.00000  24.00000  1.00000
5.00000  25.00000  1.00000
5.00000  26.00000  1.00000
5.00000  27.00000  1.00000
5.00000  28.00000  1.00000
6.00000  1.00000  1.00000
6.00000  2.00000  1.00000
6.00000  3.00000  1.00000
6.00000  4.00000  1.00000
6.00000  5.00000  1.00000
6.00000  6.00000  1.00000
6.00000  7.00000  1.00000
6.00000  8.00000  1.00000
6.00000  9.00000  1.00000
6.00000  10.00000  1.00000
6.00000  11.00000  1.00000
6.00000  12.00000  1.00000
6.00000  13.00000  1.00000
6.00000  14.00000  1.00000
6.00000  15.00000  1.00000
6.00000  16.00000  1.00000
6.00000  17.00000  1.00000
6.00000  18.00000  1.00000
6.00000  19.00000  1.00000
6.00000  20.00000  1.00000
6.00000  21.00000  1.00000
6.00000  22.00000  1.00000
6.00000  23.00000  1.00000
6.00000  24.00000  1.00000
6.00000  25.00000  1.00000
6.00000  26.00000  1.00000
6.00000  27.00000  1.00000
6.00000  28.00000  1.00000
7.00000  1.00000  1.00000
7.00000  2.00000  1.00000
7.00000  3.00000  1.00000
7.00000  4.00000  1.00000
7.00000  5.00000  1.00000
7.00000  6.00000  1.00000
7.00000  7.00000  1.00000
7.00000  8.00000  1.00000
7.00000  9.00000  1.00000
7.00000  10.00000  1.00000
7.00000  11.00000  1.00000
7.00000  12.00000  1.00000
7.00000  13.00000  1.00000
7.00000  14.00000  1.00000
7.00000  15.00000  1.00000
7.00000  16.00000  1.00000
7.00000  17.00000  1.00000
7.00000  18.00000  1.00000
7.00000  19.00000  1.00000
7.00000  20.00000  1.00000
7.00000  21.00000  1.00000
7.00000  22.00000  1.00000
7.00000  23.00000  1.00000
7.00000  24.00000  1.00000
7.00000  25.00000  1.00000
7.00000  26.00000  1.00000
7.00000  27.00000  1.00000
7.00000  28.00000  1.00000
8.00000  1.00000  1.00000
8.00000  2.00000  1.00000
8.00000  3.00000  1.00000
8.00000  4.00000  1.00000
8.00000  5.00000  1.00000
8.00000  6.00000  1.00000
8.00000  7.00000  1.00000
8.00000  8.00000  1.00000
8.00000  9.00000  1.00000
8.00000  10.00000  1.00000
8.00000  11.00000  1.00000
8.00000  12.00000  1.00000
8.00000  13.00000  1.00000
8.00000  14.00000  1.00000
8.00000  15.00000  1.00000
8.00000  16.00000  1.00000
8.00000  17.00000  1.00000
8.00000  18.00000  1.00000
8.00000  19.00000  1.00000
8.00000  20.00000  1.00000
8.00000  21.00000  1.00000
8.00000  22.00000  1.00000
8.00000  23.00000  1.00000
8.00000  24.00000  1.00000
8.00000  25.00000  1.00000
8.00000  26.00000  1.00000
8.00000  27.00000  1.00000
8.00000  28.00000  1.00000
9.00000  1.00000  1.00000
9.00000  2.00000  1.00000
9.00000  3.00000  1.00000
9.00000  4.00000  1.00000
9.00000  5.00000  1.00000
9.00000  6.00000  1.00000
9.00000  7.00000  1.00000
9.00000  8.00000  1.00000
9.00000  9.00000  1.00000
9.00000  10.00000  1.00000
9.00000  11.00000  1.00000
9.00000  12.00000  1.00000
9.00000  13.00000  1.00000
9.00000  14.00000  1.00000
9.00000  15.00000  1.00000
9.00000  16.00000  1.00000
9.00000  17.00000  1.00000
9.00000  18.00000  1.00000
9.00000  19.00000  1.00000
9.00000  20.00000  1.00000
9.00000  21.00000  1.00000
9.00000  22.00000  1.00000
9.00000  23.00000  1.00000
9.00000  24.00000  1.00000
9.00000  25.00000  1.00000
9.00000  26.00000  1.00000
9.00000  27.00000  1.00000
9.00000  28.00000  1.00000
10.00000  1.00000  1.00000
10.00000  2.00000  1.00000
10.00000  3.00000  1.00000
10.00000  4.00000  1.00000
10.00000  5.00000  1.00000
10.00000  6.00000  1.00000
10.00000  7.00000  1.00000
10.00000  8.00000  1.00000
10.00000  9.00000  1.00000
10.00000  10.00000  1.00000
10.00000  11.00000  1.00000
10.00000  12.00000  1.00000
10.00000  13.00000  1.00000
10.00000  14.00000  1.00000
10.00000  15.00000  1.00000
10.00000  16.00000  1.00000
10.00000  17.00000  1.00000
10.00000  18.00000  1.00000
10.00000  19.00000  1.00000
10.00000  20.00000  1.00000
10.00000  21.00000  1.00000
10.00000  22.00000  1.00000
10.00000  23.00000  1.00000
10.00000  24.00000  1.00000
10.00000  25.00000  1.00000
10.00000  26.00000  1.00000
10.00000  27.00000  1.00000
10.00000  28.00000  1.00000
11.00000  1.00000  1.00000
11.00000  2.00000  1.00000
11.00000  3.00000  1.00000
11.00000  4.00000  1.00000
11.00000  5.00000  1.00000
11.00000  6.00000  1.00000
11.00000  7.00000  1.00000
11.00000  8.00000  1.00000
11.00000  9.00000  1.00000
11.00000  10.00000  1.00000
11.00000  11.00000  1.00000
11.00000  12.00000  1.00000
11.00000  13.00000  1.00000
11.00000  14.00000  1.00000
11.00000  15.00000  1.00000
11.00000  16.00000  1.00000
11.00000  17.00000  1.00000
11.00000  18.00000  1.00000
11.00000  19.00000  1.00000
11.00000  20.00000  1.00000
11.00000  21.00000  1.00000
11.00000  22.00000  1.00000
11.00000  23.00000  1.00000
11.00000  24.00000  1.00000
11.00000  25.00000  1.00000
11.00000  26.00000  1.00000
11.00000  27.00000  1.00000
11.00000  28.00000  1.00000
12.00000  1.00000  1.00000
12.00000  2.00000  1.00000
12.00000  3.00000  1.00000
12.00000  4.00000  1.00000
12.00000  5.00000  1.00000
12.00000  6.00000  1.00000
12.00000  7.00000  1.00000
12.00000  8.00000  1.00000
12.00000  9.00000  1.00000
12.00000  10.00000  1.00000
12.00000  11.00000  1.00000
12.00000  12.00000  1.00000
12.00000  13.00000  1.00000
12.00000  14.00000  1.00000
12.00000  15.00000  1.00000
12.00000  16.00000  1.00000
12.00000  17.00000  1.00000
12.00000  18.00000  1.00000
12.00000  19.00000  1.00000
12.00000  20.00000  1.00000
12.00000  21.00000  1.00000
12.00000  22.00000  1.00000
12.00000  23.00000  1.00000
12.00000  24.00000  1.00000
12.00000  25.00000  1.00000
12.00000  26.00000  1.00000
12.00000  27.00000  1.00000
12.00000  28.00000  1.00000
13.00000  1.00000  1.00000
13.00000  2.00000  1.00000
13.00000  3.00000  1.00000
13.00000  4.00000  1.00000
13.00000  5.00000  1.00000
13.00000  6.00000  1.00000
13.00000  7.00000  1.00000
13.00000  8.00000  1.00000
13.00000  9.00000  1.00000
13.00000  10.00000  1.00000
13.00000  11.00000  1.00000
13.00000  12.00000  1.00000
13.00000  13.00000  1.00000
13.00000  14.00000  1.00000
13.00000  15.00000  1.00000
13.00000  16.00000  1.00000
13.00000  17.00000  1.00000
13.00000  18.00000  1.00000
13.00000  19.00000  1.00000
13.00000  20.00000  1.00000
13.00000  21.00000  1.00000
13.00000  22.00000  1.00000
13.00000  23.00000  1.00000
13.00000  24.00000  1.00000
13.00000  25.00000  1.00000
13.00000  26.00000  1.00000
13.00000  27.00000  1.00000
13.00000  28.00000  1.00000
14.00000  1.00000  1.00000
14.00000  2.00000  1.00000
[...]
POINT_DATA 16800
SCALARS Perm float
LOOKUP_TABLE default
0.00000
0.00000
0.00000
0.00000
0.00000
0.00000
0.00000
0.00000
0.00000
0.00000
0.00000
0.00000
0.00000
0.00000
0.00000
0.00000
0.00000
0.00000
125.65208
170.48770
228.64707
321.62146
242.23175
295.62374
174.48180
512.90110
290.75752
395.04563
0.00000
0.00000
0.00000
0.00000
0.00000
0.00000
0.00000
0.00000
0.00000
0.00000
0.00000
0.00000
0.00000
0.00000
0.00000
0.00000
0.00000
0.00000
215.18804
172.80089
246.33706
403.37230
489.81690
471.50220
294.58775
235.29247
264.96484
466.85905
0.00000
0.00000
0.00000
0.00000
0.00000
0.00000
0.00000
0.00000
0.00000
0.00000
0.00000
0.00000
0.00000
0.00000
0.00000
0.00000
307.22388
441.12827
244.83236
287.77932
244.72971
359.49059
230.39279
283.17362
175.92598
154.38992
0.00000
0.00000
0.00000
0.00000
0.00000
0.00000
0.00000
0.00000
0.00000
0.00000
0.00000
0.00000
0.00000
0.00000
0.00000
0.00000
0.00000
0.00000
436.74919
377.36262
225.47581
175.30711
201.29529
288.51318
452.25826
453.38752
356.40928
192.87426
0.00000
0.00000
0.00000
0.00000
0.00000
0.00000
0.00000
0.00000
0.00000
0.00000
0.00000
0.00000
0.00000
0.00000
0.00000
0.00000
0.00000
0.00000
396.04644
391.38318
169.32225
113.86053
86.30111
125.14470
268.35738
310.95343
394.38283
463.88732
0.00000
0.00000
0.00000
0.00000
0.00000
0.00000
0.00000
0.00000
0.00000
0.00000
0.00000
0.00000
0.00000
0.00000
0.00000
0.00000
0.00000
0.00000
348.85043
326.14259
237.80983
146.09997
89.71802
90.30797
229.97377
317.11553
530.36083
710.09981
0.00000
0.00000
0.00000
0.00000
0.00000
0.00000
0.00000
0.00000
0.00000
0.00000
0.00000
0.00000
0.00000
0.00000
0.00000
0.00000
317.44525
285.17292
262.57225
206.65214
276.43157
274.23235
269.95714
278.79509
254.11047
233.58682
0.00000
0.00000
0.00000
0.00000
0.00000
0.00000
0.00000
0.00000
0.00000
0.00000
0.00000
0.00000
0.00000
0.00000
0.00000
0.00000
0.00000
0.00000
323.54805
401.76945
368.79066
286.93616
183.49136
178.81871
421.01109
390.88209
221.55706
192.49346
0.00000
0.00000
0.00000
0.00000
0.00000
0.00000
0.00000
0.00000
0.00000
0.00000
0.00000
0.00000
0.00000
0.00000
0.00000
0.00000
0.00000
0.00000
150.16772
223.36239
283.61416
258.70342
324.15091
220.55754
309.21453
296.26546
205.49967
163.49334
0.00000
0.00000
0.00000
0.00000
0.00000
0.00000
0.00000
0.00000
0.00000
0.00000
0.00000
0.00000
0.00000
0.00000
0.00000
0.00000
0.00000
0.00000
80.05314
128.39221
191.10403
222.01883
258.96481
159.68915
183.03955
45.00503
111.48462
104.65403
0.00000
0.00000
0.00000
0.00000
0.00000
0.00000
0.00000
0.00000
0.00000
0.00000
0.00000
0.00000
0.00000
0.00000
0.00000
0.00000
0.00000
0.00000
349.22912
387.28770
128.47288
216.00112
239.66495
213.59775
151.59427
125.69386
321.10153
218.14511
0.00000
0.00000
0.00000
0.00000
0.00000
0.00000
0.00000
0.00000
0.00000
0.00000
0.00000
0.00000
0.00000
0.00000
0.00000
0.00000
0.00000
0.00000
448.31238
402.73813
338.63300
244.20052
232.31961
283.70617
289.81460
270.97378
190.27229
87.56930
0.00000
0.00000
0.00000
0.00000
0.00000
0.00000
0.00000
0.00000
0.00000
0.00000
0.00000
0.00000
0.00000
0.00000
0.00000
0.00000
0.00000
0.00000
272.06442
140.02010
117.86328
156.40969
385.69567
360.90343
304.77643
403.93183
527.60143
400.30665
0.00000
0.00000
0.00000
0.00000
0.00000
0.00000
0.00000
0.00000
0.00000
0.00000
0.00000
0.00000
0.00000
0.00000
0.00000
0.00000
0.00000
0.00000
218.10121
284.09429
326.40070
232.72590
278.57986
160.02545
137.92014
148.81284
269.97282
226.37647
0.00000
0.00000
0.00000
0.00000
0.00000
0.00000
0.00000
0.00000
0.00000
0.00000
0.00000
0.00000
0.00000
0.00000
0.00000
0.00000
0.00000
0.00000
203.40903
297.97757
384.06660
582.84971
437.09651
333.59348
197.45908
207.68110
253.72070
295.53822
0.00000
0.00000
0.00000
0.00000
0.00000
0.00000
0.00000
0.00000
0.00000
0.00000
0.00000
0.00000
0.00000
0.00000
0.00000
0.00000
0.00000
0.00000
239.20378
199.62898
236.37077
352.82288
544.51940
524.32680
388.98125
266.12196
221.22614
122.98783
0.00000
0.00000
0.00000
0.00000
0.00000
0.00000
0.00000
0.00000
0.00000
0.00000
0.00000
0.00000
0.00000
0.00000
0.00000
0.00000
0.00000
0.00000
0.00000
0.00000
142.99396
191.11557
224.82982
336.42122
469.62511
234.51051
249.44675
154.48877
249.76102
289.31486
0.00000
0.00000
0.00000
0.00000
0.00000
0.00000
0.00000
0.00000
0.00000
0.00000
0.00000
0.00000
0.00000
0.00000
0.00000
0.00000
0.00000
0.00000
115.90971
206.26642
394.33945
366.74852
319.88654
349.60579
332.47973
415.02280
371.20983
565.85913
0.00000
0.00000
0.00000
0.00000
0.00000
0.00000
0.00000
0.00000
0.00000
0.00000
0.00000
0.00000
0.00000
0.00000
0.00000
0.00000
0.00000
0.00000
248.12793
217.96791
206.60532
121.51189
271.69194
218.41017
187.78492
172.76430
157.27791
136.94213
0.00000
0.00000
0.00000
0.00000
0.00000
0.00000
0.00000
0.00000
0.00000
0.00000
0.00000
0.00000
0.00000
0.00000
0.00000
0.00000
0.00000
0.00000
296.41854
254.82376
365.39275
239.80427
198.69700
160.95150
201.16941
194.25938
209.43618
80.03247
0.00000
0.00000
0.00000
0.00000
0.00000
0.00000
0.00000
0.00000
0.00000
0.00000
0.00000
0.00000
0.00000
0.00000
0.00000
0.00000
0.00000
0.00000
0.00000
0.00000
82.41558
141.54410
161.11962
316.49110
77.04035
300.79788
113.38792
507.52536
294.05776
360.62384
0.00000
0.00000
0.00000
0.00000
0.00000
0.00000
0.00000
0.00000
0.00000
0.00000
0.00000
0.00000
0.00000
0.00000
0.00000
0.00000
0.00000
0.00000
199.38386
206.36468
246.12631
343.24812
474.62002
468.40325
244.97815
297.22125
283.31065
391.11301
0.00000
0.00000
0.00000
0.00000
0.00000
0.00000
0.00000
0.00000
0.00000
0.00000
0.00000
0.00000
0.00000
0.00000
0.00000
0.00000
268.73473
400.42478
345.24433
282.74538
289.32751
303.72727
266.81285
298.02367
166.96934
122.53749
0.00000
0.00000
0.00000
0.00000
0.00000
0.00000
0.00000
0.00000
0.00000
0.00000
0.00000
0.00000
0.00000
0.00000
0.00000
0.00000
0.00000
0.00000
462.35282
362.03952
259.32165
158.26210
331.09058
329.11605
466.72928
379.32185
433.40185
228.67805
0.00000
0.00000
0.00000
0.00000
0.00000
0.00000
0.00000
0.00000
0.00000
0.00000
0.00000
0.00000
0.00000
0.00000
0.00000
0.00000
0.00000
0.00000
329.36122
418.64779
212.77704
111.19375
121.62797
156.68446
198.10437
222.63543
412.29963
440.23586
0.00000
0.00000
0.00000
0.00000
0.00000
0.00000
0.00000
0.00000
0.00000
0.00000
0.00000
0.00000
0.00000
0.00000
0.00000
0.00000
0.00000
0.00000
263.03390
285.20752
210.20092
110.36331
92.21491
75.13886
274.93009
290.24939
506.30627
517.09376
0.00000
0.00000
0.00000
0.00000
0.00000
0.00000
0.00000
0.00000
0.00000
0.00000
0.00000
0.00000
0.00000
0.00000
0.00000
0.00000
252.50993
284.60702
151.77006
216.97354
217.16533
291.78557
286.31760
290.33327
287.74013
297.63910
0.00000
0.00000
0.00000
0.00000
0.00000
0.00000
0.00000
0.00000
0.00000
0.00000
0.00000
0.00000
0.00000
0.00000
0.00000
0.00000
0.00000
0.00000
296.85373
387.85139
284.03394
257.92143
226.85296
191.57700
385.77439
304.27380
269.30308
139.61766
0.00000
0.00000
0.00000
0.00000
0.00000
0.00000
0.00000
0.00000
0.00000
0.00000
0.00000
0.00000
0.00000
0.00000
0.00000
0.00000
0.00000
0.00000
176.39946
171.56872
261.81492
235.13480
258.81718
230.49677
265.22794
268.62520
237.82492
144.68132
0.00000
0.00000
0.00000
0.00000
0.00000
0.00000
0.00000
0.00000
0.00000
0.00000
0.00000
0.00000
0.00000
0.00000
0.00000
0.00000
0.00000
0.00000
61.02850
153.59726
149.82424
353.85538
270.86873
255.72934
73.17729
75.87960
77.33632
151.24743
0.00000
0.00000
0.00000
0.00000
0.00000
0.00000
0.00000
0.00000
0.00000
0.00000
0.00000
0.00000
0.00000
0.00000
0.00000
0.00000
0.00000
0.00000
415.05065
362.97639
137.91961
193.37806
234.83878
264.71155
169.37076
217.57562
334.73448
314.08827
0.00000
0.00000
0.00000
0.00000
0.00000
0.00000
0.00000
0.00000
0.00000
0.00000
0.00000
0.00000
0.00000
0.00000
0.00000
0.00000
0.00000
0.00000
619.69406
424.17751
290.12593
243.95455
309.25599
407.44034
306.33589
270.62936
181.06688
139.46451
0.00000
0.00000
0.00000
0.00000
0.00000
0.00000
0.00000
0.00000
0.00000
0.00000
0.00000
0.00000
0.00000
0.00000
0.00000
0.00000
0.00000
0.00000
229.20263
143.07074
111.67007
143.44371
443.53753
316.38653
361.16371
297.17184
536.53967
429.46510
0.00000
0.00000
0.00000
0.00000
0.00000
0.00000
0.00000
0.00000
0.00000
0.00000
0.00000
0.00000
0.00000
0.00000
0.00000
0.00000
0.00000
0.00000
188.35076
251.32685
384.71218
304.34828
330.47251
86.69799
167.52816
142.90497
264.39405
144.04172
0.00000
0.00000
0.00000
0.00000
0.00000
0.00000
0.00000
0.00000
0.00000
0.00000
0.00000
0.00000
0.00000
0.00000
0.00000
0.00000
0.00000
0.00000
180.54117
248.43513
343.43213
440.95299
321.75079
305.34808
182.78186
198.93256
191.51179
280.92299
0.00000
0.00000
0.00000
0.00000
0.00000
0.00000
0.00000
0.00000
0.00000
0.00000
0.00000
0.00000
0.00000
0.00000
0.00000
0.00000
0.00000
0.00000
269.13613
203.59973
186.79979
377.65575
528.90663
565.37445
460.33838
257.63356
202.66256
141.78334
0.00000
0.00000
0.00000
0.00000
0.00000
0.00000
0.00000
0.00000
0.00000
0.00000
0.00000
0.00000
0.00000
0.00000
0.00000
0.00000
0.00000
0.00000
0.00000
0.00000
90.34108
192.07278
142.45270
267.94765
222.37807
246.25916
168.47193
161.51372
158.63990
336.39009
0.00000
0.00000
0.00000
0.00000
0.00000
0.00000
0.00000
0.00000
0.00000
0.00000
0.00000
0.00000
0.00000
0.00000
0.00000
0.00000
0.00000
0.00000
195.46849
258.90612
448.52940
653.00229
322.02570
378.13183
371.72540
425.51479
392.73311
412.99591
0.00000
0.00000
0.00000
0.00000
0.00000
0.00000
0.00000
0.00000
0.00000
0.00000
0.00000
0.00000
0.00000
0.00000
0.00000
0.00000
0.00000
0.00000
221.94273
154.66510
201.16889
126.67172
213.80317
226.87508
244.66694
206.31542
183.51110
166.62678
0.00000
0.00000
0.00000
0.00000
0.00000
0.00000
0.00000
0.00000
0.00000
0.00000
0.00000
0.00000
0.00000
0.00000
0.00000
0.00000
0.00000
0.00000
332.20216
297.57612
393.28306
194.77106
218.44593
181.59242
252.16568
337.25799
170.43031
95.09709
0.00000
0.00000
0.00000
0.00000
0.00000
0.00000
0.00000
0.00000
0.00000
0.00000
0.00000
0.00000
0.00000
0.00000
0.00000
0.00000
94.02681
150.39013
174.22284
245.55065
131.19181
286.91611
137.88045
375.43238
358.22518
411.14755
0.00000
0.00000
0.00000
0.00000
0.00000
0.00000
0.00000
0.00000
0.00000
0.00000
0.00000
0.00000
0.00000
0.00000
0.00000
0.00000
0.00000
0.00000
153.56722
171.39418
242.07069
433.71095
411.52282
558.29582
222.35481
276.65756
264.59239
407.26269
0.00000
0.00000
0.00000
0.00000
0.00000
0.00000
0.00000
0.00000
0.00000
0.00000
0.00000
0.00000
0.00000
0.00000
0.00000
0.00000
324.02654
411.74880
282.57200
366.26658
283.88285
342.70449
322.87585
398.55799
212.86192
171.18089
0.00000
0.00000
0.00000
0.00000
0.00000
0.00000
0.00000
0.00000
0.00000
0.00000
0.00000
0.00000
0.00000
0.00000
0.00000
0.00000
0.00000
0.00000
415.39060
349.22583
238.15940
185.19751
273.04749
355.62559
437.88067
429.03845
346.77521
250.66210
0.00000
0.00000
0.00000
0.00000
0.00000
0.00000
0.00000
0.00000
0.00000
0.00000
0.00000
0.00000
0.00000
0.00000
0.00000
0.00000
0.00000
0.00000
386.70404
458.49014
175.99630
137.92413
103.54016
173.58110
245.51132
277.12440
346.53176
344.24015
0.00000
0.00000
0.00000
0.00000
0.00000
0.00000
0.00000
0.00000
0.00000
0.00000
0.00000
0.00000
0.00000
0.00000
0.00000
0.00000
0.00000
0.00000
220.54921
242.03699
199.03232
162.93576
93.94339
82.71825
263.09313
297.48012
420.35603
587.63491
0.00000
0.00000
0.00000
0.00000
0.00000
0.00000
0.00000
0.00000
0.00000
0.00000
0.00000
0.00000
0.00000
0.00000
0.00000
0.00000
340.56343
311.07729
216.86262
228.30136
268.85163
321.72430
355.65990
272.65588
250.56884
306.17781
0.00000
0.00000
0.00000
0.00000
0.00000
0.00000
0.00000
0.00000
0.00000
0.00000
0.00000
0.00000
0.00000
0.00000
0.00000
0.00000
0.00000
0.00000
325.16069
379.30151
281.39792
302.86158
201.20674
217.04276
424.53869
413.21544
271.67265
131.69389
0.00000
0.00000
0.00000
0.00000
0.00000
0.00000
0.00000
0.00000
0.00000
0.00000
0.00000
0.00000
0.00000
0.00000
0.00000
0.00000
0.00000
0.00000
223.07043
168.91141
311.83150
292.48196
277.15539
293.46521
240.25577
345.82681
257.91476
205.53744
0.00000
0.00000
0.00000
0.00000
0.00000
0.00000
0.00000
0.00000
0.00000
0.00000
0.00000
0.00000
0.00000
0.00000
0.00000
0.00000
0.00000
0.00000
82.36259
195.63152
143.27236
304.29741
189.60837
248.42382
95.81204
63.13747
76.44409
140.35273
0.00000
0.00000
0.00000
0.00000
0.00000
0.00000
0.00000
0.00000
0.00000
0.00000
0.00000
0.00000
0.00000
0.00000
0.00000
0.00000
0.00000
0.00000
355.18526
375.19118
141.10980
222.14410
221.79824
246.67031
172.16420
218.04719
303.30135
367.62261
0.00000
0.00000
0.00000
0.00000
0.00000
0.00000
0.00000
0.00000
0.00000
0.00000
0.00000
0.00000
0.00000
0.00000
0.00000
0.00000
0.00000
0.00000
697.28530
384.81798
310.43940
271.65401
375.38109
364.13511
285.87495
231.83543
211.54454
146.32698
0.00000
0.00000
0.00000
0.00000
0.00000
0.00000
0.00000
0.00000
0.00000
0.00000
0.00000
0.00000
0.00000
0.00000
0.00000
0.00000
0.00000
0.00000
167.70486
122.99622
99.83873
186.54068
334.07655
247.98588
355.52637
313.09512
478.61619
476.60412
0.00000
0.00000
0.00000
0.00000
0.00000
0.00000
0.00000
0.00000
0.00000
0.00000
0.00000
0.00000
0.00000
0.00000
0.00000
0.00000
0.00000
0.00000
106.31305
284.56390
290.70019
328.10968
204.76220
97.69316
187.92910
171.08515
281.89336
220.03395
0.00000
0.00000
0.00000
0.00000
0.00000
0.00000
0.00000
0.00000
0.00000
0.00000
0.00000
0.00000
0.00000
0.00000
0.00000
0.00000
0.00000
0.00000
207.03116
257.74714
356.64655
505.06229
361.64338
360.57888
185.75589
290.77891
229.32971
318.11953
0.00000
0.00000
0.00000
0.00000
0.00000
0.00000
0.00000
0.00000
0.00000
0.00000
0.00000
0.00000
0.00000
0.00000
0.00000
0.00000
0.00000
0.00000
178.73237
221.33991
248.95641
410.29494
548.43283
572.03933
492.70899
412.02588
183.12223
132.72180
0.00000
0.00000
0.00000
0.00000
0.00000
0.00000
0.00000
0.00000
0.00000
0.00000
0.00000
0.00000
0.00000
0.00000
0.00000
0.00000
0.00000
0.00000
0.00000
0.00000
110.30434
265.55216
205.88741
294.07046
297.12662
306.60223
231.94468
179.36077
249.34802
286.00651
0.00000
0.00000
0.00000
0.00000
0.00000
0.00000
0.00000
0.00000
0.00000
0.00000
0.00000
0.00000
0.00000
0.00000
0.00000
0.00000
0.00000
0.00000
194.45364
278.17411
425.13638
448.43264
373.81124
413.49793
364.91674
494.68604
473.11304
490.03661
0.00000
0.00000
0.00000
0.00000
0.00000
0.00000
0.00000
0.00000
0.00000
0.00000
0.00000
0.00000
0.00000
0.00000
0.00000
0.00000
0.00000
0.00000
287.24411
158.63222
117.58393
153.48873
212.60254
210.45335
203.57179
201.06274
217.17706
218.40003
0.00000
0.00000
0.00000
0.00000
0.00000
0.00000
0.00000
0.00000
0.00000
0.00000
0.00000
0.00000
0.00000
0.00000
0.00000
0.00000
0.00000
0.00000
288.46456
346.27288
420.30568
288.42559
203.02170
227.57206
300.86879
473.12766
187.45851
161.55171
0.00000
0.00000
0.00000
0.00000
0.00000
0.00000
0.00000
0.00000
0.00000
0.00000
0.00000
0.00000
0.00000
0.00000
0.00000
0.00000
0.00000
0.00000
0.00000
0.00000
111.72971
169.07756
239.01849
194.51448
140.60860
180.06699
142.14083
317.59979
322.46792
403.96755
0.00000
0.00000
0.00000
0.00000
0.00000
0.00000
0.00000
0.00000
0.00000
0.00000
0.00000
0.00000
0.00000
0.00000
0.00000
0.00000
0.00000
0.00000
177.91936
197.82352
234.84880
287.05246
472.90900
530.54665
299.41826
259.09070
316.85437
423.09806
0.00000
0.00000
0.00000
0.00000
0.00000
0.00000
0.00000
0.00000
0.00000
0.00000
0.00000
0.00000
0.00000
0.00000
0.00000
0.00000
327.61052
318.24950
235.35244
306.49483
250.65178
332.20822
327.98940
420.03145
195.24263
227.63605
0.00000
0.00000
0.00000
0.00000
0.00000
0.00000
0.00000
0.00000
0.00000
0.00000
0.00000
0.00000
0.00000
0.00000
0.00000
0.00000
0.00000
0.00000
332.09614
332.48081
255.48688
200.58068
267.04009
355.40179
397.05475
458.53570
364.14129
264.71022
0.00000
0.00000
0.00000
0.00000
0.00000
0.00000
0.00000
0.00000
0.00000
0.00000
0.00000
0.00000
0.00000
0.00000
0.00000
0.00000
0.00000
0.00000
375.01150
393.21720
240.68611
184.26900
149.80871
121.85636
269.58011
290.93526
345.04376
418.10101
0.00000
0.00000
0.00000
0.00000
0.00000
0.00000
0.00000
0.00000
0.00000
0.00000
0.00000
0.00000
0.00000
0.00000
0.00000
0.00000
0.00000
0.00000
249.74383
326.91006
192.44127
198.93908
145.50839
148.01686
221.27921
290.11955
470.93534
550.99825
0.00000
0.00000
0.00000
0.00000
0.00000
0.00000
0.00000
0.00000
0.00000
0.00000
0.00000
0.00000
0.00000
0.00000
0.00000
0.00000
336.33863
269.61138
220.08705
215.58194
293.19380
325.22745
333.34320
289.41477
282.96612
322.99685
0.00000
0.00000
0.00000
0.00000
0.00000
0.00000
0.00000
0.00000
0.00000
0.00000
0.00000
0.00000
0.00000
0.00000
0.00000
0.00000
0.00000
0.00000
281.94233
335.39254
297.51711
215.37198
227.35744
286.42953
360.60830
291.24820
258.77717
191.99179
0.00000
0.00000
0.00000
0.00000
0.00000
0.00000
0.00000
0.00000
0.00000
0.00000
0.00000
0.00000
0.00000
0.00000
0.00000
0.00000
0.00000
0.00000
172.54302
176.98910
281.09239
268.29024
195.25612
226.24327
257.82031
268.18586
225.68578
208.66976
0.00000
0.00000
0.00000
0.00000
0.00000
0.00000
0.00000
0.00000
0.00000
0.00000
0.00000
0.00000
0.00000
0.00000
0.00000
0.00000
0.00000
0.00000
76.52260
188.56916
205.57638
303.71170
241.11876
193.14648
143.96953
71.95689
109.71420
137.42989
0.00000
0.00000
0.00000
0.00000
0.00000
0.00000
0.00000
0.00000
0.00000
0.00000
0.00000
0.00000
0.00000
0.00000
0.00000
0.00000
0.00000
0.00000
316.21310
328.50203
156.98650
204.29651
206.07855
188.68960
168.60105
147.36453
302.07696
382.74062
0.00000
0.00000
0.00000
0.00000
0.00000
0.00000
0.00000
0.00000
0.00000
0.00000
0.00000
0.00000
0.00000
0.00000
0.00000
0.00000
0.00000
0.00000
541.13261
358.02995
300.78044
274.90644
382.14475
330.48230
286.55816
317.44296
212.15926
135.45145
0.00000
0.00000
0.00000
0.00000
0.00000
0.00000
0.00000
0.00000
0.00000
0.00000
0.00000
0.00000
0.00000
0.00000
0.00000
0.00000
0.00000
0.00000
276.13219
139.82719
106.64292
163.47015
389.75214
250.18858
386.06338
264.75266
442.76686
473.88417
0.00000
0.00000
0.00000
0.00000
0.00000
0.00000
0.00000
0.00000
0.00000
0.00000
0.00000
0.00000
0.00000
0.00000
0.00000
0.00000
0.00000
0.00000
110.93641
270.79772
398.98545
343.07876
207.25590
111.78671
153.04875
218.57141
192.54845
231.31279
0.00000
0.00000
0.00000
0.00000
0.00000
0.00000
0.00000
0.00000
0.00000
0.00000
0.00000
0.00000
0.00000
0.00000
0.00000
0.00000
0.00000
0.00000
240.48388
215.31281
298.24100
324.10083
343.54250
253.69157
245.86959
188.45781
240.60595
299.94872
0.00000
0.00000
0.00000
0.00000
0.00000
0.00000
0.00000
0.00000
0.00000
0.00000
0.00000
0.00000
0.00000
0.00000
0.00000
0.00000
0.00000
0.00000
156.37044
208.93682
203.15998
439.33859
428.59260
519.93815
535.37356
393.13746
204.61505
132.50038
0.00000
0.00000
0.00000
0.00000
0.00000
0.00000
0.00000
0.00000
0.00000
0.00000
0.00000
0.00000
0.00000
0.00000
0.00000
0.00000
0.00000
0.00000
0.00000
0.00000
131.03018
237.28591
224.23833
296.25995
303.91306
305.18534
236.26050
198.06320
264.16408
358.33648
0.00000
0.00000
0.00000
0.00000
0.00000
0.00000
0.00000
0.00000
0.00000
0.00000
0.00000
0.00000
0.00000
0.00000
0.00000
0.00000
0.00000
0.00000
241.41224
343.56329
438.48854
477.76855
450.28054
472.33278
423.83165
576.94232
489.97777
580.90444
0.00000
0.00000
0.00000
0.00000
0.00000
0.00000
0.00000
0.00000
0.00000
0.00000
0.00000
0.00000
0.00000
0.00000
0.00000
0.00000
0.00000
0.00000
232.35403
158.77551
125.14410
134.07452
214.28277
173.05009
205.77332
230.80883
202.96358
196.38592
0.00000
0.00000
0.00000
0.00000
0.00000
0.00000
0.00000
0.00000
0.00000
0.00000
0.00000
0.00000
0.00000
0.00000
0.00000
0.00000
0.00000
0.00000
367.68020
301.97974
418.69535
326.84176
199.13604
240.67077
325.32516
443.59748
188.24265
204.14802
0.00000
0.00000
0.00000
0.00000
0.00000
0.00000
0.00000
0.00000
0.00000
0.00000
0.00000
0.00000
0.00000
0.00000
0.00000
0.00000
0.00000
0.00000
123.49606
146.40877
188.18014
255.31652
141.90031
134.89216
131.87242
348.66498
297.67817
461.11614
0.00000
0.00000
0.00000
0.00000
0.00000
0.00000
0.00000
0.00000
0.00000
0.00000
0.00000
0.00000
0.00000
0.00000
0.00000
0.00000
0.00000
0.00000
155.71413
209.77917
226.10285
461.72914
431.48032
545.37559
303.18796
266.05371
334.82640
423.09858
0.00000